/*--------------------------------*- C++ -*----------------------------------*\
| =========                 |                                                 |
| \\      /  F ield         | OpenFOAM: The Open Source CFD Toolbox           |
|  \\    /   O peration     | Version:  2112                                  |
|   \\  /    A nd           | Website:  www.openfoam.com                      |
|    \\/     M anipulation  |                                                 |
\*---------------------------------------------------------------------------*/
FoamFile
{
    version     2.0;
    format      ascii;
    arch        "LSB;label=32;scalar=64";
    class       Cloud<passiveParticle>;
    location    "0.225/lagrangian/kinematicCloud";
    object      coordinates;
}
// * * * * * * * * * * * * * * * * * * * * * * * * * * * * * * * * * * * * * //

100
(
(0.242162 0.104687 0.323128 0.330023) 8137 46204 2
(0.156234 0.0942666 0.679419 0.0700803) 52906 199945 2
(0.208831 0.172588 0.0330598 0.585521) 52898 199931 2
(0.0641965 0.309301 0.448871 0.177632) 50218 530895 2
(0.465619 0.107358 0.288645 0.138378) 45947 183284 1
(0.307684 0.0234923 0.358362 0.310461) 53372 200970 1
(0.135122 0.566786 0.210413 0.0876789) 42617 492059 1
(0.20851 0.49942 0.288887 0.00318333) 42634 483458 2
(0.426208 0.0385108 0.435045 0.100237) 35186 157503 2
(0.38536 0.0459013 0.498472 0.0702666) 42141 174182 2
(0.209757 0.139505 0.441582 0.209156) 40176 169482 2
(0.193412 0.194328 0.589596 0.0226645) 111891 349597 1
(0.30953 0.147187 0.412845 0.130437) 112882 352036 1
(0.360009 0.0405053 0.0326497 0.566836) 111792 346700 1
(0.250051 0.413764 0.315041 0.0211439) 111795 349373 2
(0.824212 0.104571 0.0121944 0.0590224) 119434 365426 1
(0.128646 0.0734197 0.593628 0.204306) 111784 37996 1
(0.109435 0.141318 0.0263668 0.722881) 112880 352020 1
(0.1164 0.745327 0.073198 0.0650752) 111786 187232 1
(0.163778 0.454327 0.101496 0.280399) 111789 349353 2
(0.272316 0.147648 0.170791 0.409245) 112884 352040 2
(0.246274 0.520106 0.2129 0.0207201) 111793 349351 2
(0.265821 0.330162 0.338107 0.0659095) 114164 41749 2
(0.478209 0.170635 0.0869682 0.264188) 117123 362413 1
(0.140175 0.297521 0.00217926 0.560125) 128089 226469 1
(0.111508 0.610367 0.212553 0.0655719) 115415 358255 2
(0.137158 0.195488 0.347319 0.320035) 117563 200962 2
(0.456163 0.451484 0.0692462 0.0231065) 8862 50316 2
(0.483234 0.0129301 0.426373 0.0774625) 111785 349341 1
(0.382832 0.156633 0.315631 0.144904) 115044 357335 1
(0.146787 0.0693695 0.749996 0.033847) 117328 360269 2
(0.434705 0.0433603 0.307363 0.214572) 115311 43496 1
(0.223078 0.302007 0.228089 0.246826) 113893 192461 2
(0.151079 0.11596 0.0318524 0.701108) 116147 44928 1
(0.471058 0.037757 0.0633584 0.427826) 7636 43387 1
(0.177677 0.204998 0.557287 0.0600381) 114063 354924 1
(0.183745 0.577885 0.039558 0.198811) 111721 346523 2
(0.224642 0.123699 0.370872 0.280787) 111800 349384 2
(0.27307 0.16554 0.259683 0.301707) 111799 349381 2
(0.663342 0.0630614 0.145148 0.128449) 110627 346495 1
(0.524681 0.0636384 0.147279 0.264401) 110792 346919 1
(0.307896 0.00837101 0.0621059 0.621628) 113282 353009 2
(0.0342621 0.679056 0.0212708 0.265411) 96683 312337 1
(0.0536055 0.0210909 0.618377 0.306927) 106576 336578 2
(0.865906 0.118743 0.00221745 0.0131334) 108570 338804 1
(0.109954 0.290152 0.387271 0.212623) 19897 114669 2
(0.691396 0.096036 0.157167 0.0554017) 108288 179239 2
(0.122921 0.284176 0.391976 0.200927) 108597 341538 1
(0.0845233 0.225752 0.612697 0.0770283) 5744 32686 1
(0.212373 0.206964 0.338295 0.242367) 107832 339523 2
(0.604045 0.224812 0.0626411 0.108502) 103226 328372 2
(0.0386988 0.237239 0.291376 0.432686) 2957 16934 2
(0.050718 0.355864 0.443002 0.150416) 112123 350182 1
(0.0983598 0.174746 0.438836 0.288058) 106421 333542 1
(0.189929 0.715835 0.0757025 0.0185332) 44365 506264 1
(0.288651 0.200496 0.465044 0.0458078) 106564 336563 2
(0.543961 0.0241456 0.0429204 0.388973) 107331 30712 2
(0.132209 0.468833 0.0935861 0.305372) 110775 36227 1
(0.175991 0.45017 0.232914 0.140926) 105013 332738 2
(0.174531 0.00397487 0.745716 0.0757783) 109459 34151 1
(0.37929 0.192243 0.137051 0.291416) 44366 179517 2
(0.233753 0.38583 0.0859792 0.294438) 102454 323789 2
(0.0142717 0.390948 0.221897 0.372883) 100965 322834 2
(0.0872879 0.741913 0.0345053 0.136294) 111859 349519 1
(0.550984 0.00986977 0.0819969 0.35715) 109467 34158 2
(0.0770189 0.141586 0.198913 0.582482) 108598 341541 2
(0.321067 0.218745 0.371939 0.0882487) 109757 344384 2
(0.0183873 0.410907 0.0655801 0.505126) 45286 34032 2
(0.35083 0.339003 0.0214034 0.288764) 110873 346899 2
(0.399835 0.341119 0.2113 0.0477454) 45460 182135 2
(0.104025 0.132076 0.718546 0.0453527) 96437 311718 2
(0.0465671 0.250449 0.554657 0.148326) 108785 342009 1
(0.0611198 0.631155 0.232829 0.0748956) 109700 344002 2
(0.0740593 0.225382 0.455718 0.244841) 109604 344001 2
(0.0488039 0.14269 0.59229 0.216216) 43217 176629 2
(0.346972 0.258096 0.153436 0.241496) 110877 346909 1
(0.107487 0.43069 0.157868 0.303954) 110777 346880 2
(0.415278 0.333977 0.149073 0.101672) 111861 349520 1
(0.192635 0.459391 0.0868967 0.261077) 108602 341550 2
(0.27494 0.0648714 0.621787 0.0384021) 110875 347125 1
(0.174847 0.400152 0.0301795 0.394822) 45458 182135 1
(0.195722 0.167519 0.389702 0.247057) 107533 338936 1
(0.146753 0.492656 0.0667683 0.293822) 109789 344466 2
(0.0801791 0.16219 0.123334 0.634297) 111962 349567 1
(0.258845 0.130592 0.222232 0.388331) 108700 341798 1
(0.0472844 0.4136 0.443716 0.0954003) 109717 344275 1
(0.153352 0.271196 0.0586824 0.51677) 44366 179520 1
(0.402086 0.118578 0.462869 0.0164674) 108511 341323 1
(0.349256 0.153077 0.264662 0.233005) 110878 347124 2
(0.0452946 0.217024 0.0425046 0.695177) 5469 31139 1
(0.208862 0.035879 0.345155 0.410104) 97991 315540 2
(0.468151 0.317794 0.0249878 0.189068) 110801 346932 1
(0.244484 0.381784 0.0334409 0.340291) 110892 347170 2
(0.443443 0.176476 0.372879 0.00720111) 111971 349801 2
(0.258686 0.131646 0.359334 0.250334) 110692 36123 1
(0.327243 0.0784758 0.580966 0.0133152) 111968 349805 2
(0.20273 0.678301 0.104339 0.0146296) 46490 184602 2
(0.0596522 0.0449139 0.803421 0.0920127) 110970 347358 2
(0.45116 0.198681 0.181696 0.168464) 110796 346930 2
(0.0172574 0.00531639 0.147946 0.829481) 6372 36242 1
)


// ************************************************************************* //
