/*--------------------------------*- C++ -*----------------------------------*\
| =========                 |                                                 |
| \\      /  F ield         | OpenFOAM: The Open Source CFD Toolbox           |
|  \\    /   O peration     | Version:  2112                                  |
|   \\  /    A nd           | Website:  www.openfoam.com                      |
|    \\/     M anipulation  |                                                 |
\*---------------------------------------------------------------------------*/
FoamFile
{
    version     2.0;
    format      ascii;
    arch        "LSB;label=32;scalar=64";
    class       labelField;
    location    "0.225/lagrangian/kinematicCloud";
    object      origId;
}
// * * * * * * * * * * * * * * * * * * * * * * * * * * * * * * * * * * * * * //


100
(
51
83
49
45
53
46
66
65
80
95
61
0
3
5
6
7
8
16
17
19
21
23
29
89
74
28
42
44
70
87
10
25
33
40
48
39
76
36
26
63
34
1
81
82
88
90
98
86
93
99
94
91
92
62
75
64
68
58
69
78
79
84
20
57
72
50
77
41
55
59
97
35
38
54
73
52
56
32
11
60
37
67
71
13
47
22
12
30
15
85
96
14
31
18
2
9
24
43
4
27
)


// ************************************************************************* //
