/*--------------------------------*- C++ -*----------------------------------*\
| =========                 |                                                 |
| \\      /  F ield         | OpenFOAM: The Open Source CFD Toolbox           |
|  \\    /   O peration     | Version:  2112                                  |
|   \\  /    A nd           | Website:  www.openfoam.com                      |
|    \\/     M anipulation  |                                                 |
\*---------------------------------------------------------------------------*/
FoamFile
{
    version     2.0;
    format      ascii;
    arch        "LSB;label=32;scalar=64";
    class       Cloud<passiveParticle>;
    location    "0.225/lagrangian/kinematicCloud";
    object      positions;
}
// * * * * * * * * * * * * * * * * * * * * * * * * * * * * * * * * * * * * * //

100
(
(0.0181098 -0.00721849 0.0584998) 8137
(-0.0184087 -0.00391391 0.0592129) 52906
(0.0178365 -0.00492301 0.0594364) 52898
(0.00516742 0.015702 0.0517928) 50218
(0.00331416 -0.0186936 0.0460077) 45947
(0.0139232 0.00708045 0.0593233) 53372
(0.000155802 0.0199243 0.0359114) 42617
(0.00655382 0.0187907 0.0373077) 42634
(0.00939908 -0.0157947 0.0228856) 35186
(0.016665 0.00120992 0.0374554) 42141
(0.0116885 -0.00968503 0.0326363) 40176
(0.00493694 -0.00397999 0.0482024) 111891
(0.00297495 -0.00530957 0.0499508) 112882
(0.00405835 -0.00516405 0.0469525) 111792
(0.00380766 -0.00441127 0.0488593) 111795
(0.00274857 -0.00559694 0.0629636) 119434
(0.00415375 -0.00276671 0.0474902) 111784
(0.00413058 -0.00208824 0.0501866) 112880
(0.00196262 -0.00195502 0.0488522) 111786
(0.00367565 -0.00301638 0.0485924) 111789
(0.00356771 -0.00583988 0.0493453) 112884
(0.00257564 -0.00414801 0.0488382) 111793
(0.00813796 -0.00392357 0.0518541) 114164
(-0.000134586 -0.0115623 0.059394) 117123
(0.000243298 -0.00427374 0.0820399) 128089
(0.0122193 -0.00319853 0.0554481) 115415
(0.0117584 0.00779537 0.059813) 117563
(0.00407751 0.00749899 0.0632905) 8862
(0.00345506 -0.00328323 0.0470363) 111785
(0.00344477 0.00690295 0.0555346) 115044
(0.00599577 0.0013982 0.0580825) 117328
(0.00857235 0.00257702 0.0543317) 115311
(0.000774455 -0.00428056 0.0530968) 113893
(0.00208893 0.00410278 0.0569599) 116147
(0.00672862 0.00205487 0.0543175) 7636
(0.00553475 -8.36778e-05 0.0524749) 114063
(0.00206008 -0.00840109 0.0468533) 111721
(0.00282493 -0.00690955 0.0481405) 111800
(0.00394846 -0.00766416 0.0477214) 111799
(0.00171168 -0.00755882 0.0459981) 110627
(0.00495852 -0.00233091 0.0459917) 110792
(0.0141451 -0.000286749 0.0491827) 113282
(0.00785712 -0.000743376 0.0163604) 96683
(0.00900309 0.00436522 0.0358752) 106576
(0.00424739 0.00670632 0.0404869) 108570
(0.00794948 -0.00710024 0.00785227) 19897
(-0.00221457 -0.00263073 0.0417988) 108288
(0.00551509 0.000278154 0.0419548) 108597
(0.00400974 0.00349942 0.0401342) 5744
(0.0123831 -0.0028341 0.0396078) 107832
(0.00666077 0.000679988 0.0302146) 103226
(0.0069239 -0.000723479 0.0205193) 2957
(0.0105251 0.0013964 0.048473) 112123
(0.0050158 -0.00338326 0.0355553) 106421
(0.00255488 -2.48671e-05 0.0420371) 44365
(0.00862822 0.00806869 0.037064) 106564
(0.000556205 0.00448965 0.0384936) 107331
(0.0043692 0.000237044 0.0450232) 110775
(-0.00285587 -0.00343448 0.0349805) 105013
(-0.000895889 -0.00727376 0.0423526) 109459
(0.0027554 -0.00110899 0.0415546) 44366
(-0.0108484 0.0060368 0.0288822) 102454
(0.00484779 -0.00287954 0.0258224) 100965
(0.00567286 0.00521835 0.047924) 111859
(-0.000394467 -0.00854354 0.043054) 109467
(0.0051691 -0.00100557 0.0408579) 108598
(0.00633692 0.00695195 0.0443192) 109757
(-0.00345649 -0.00218073 0.0428286) 45286
(0.00637717 -0.00131137 0.0450463) 110873
(0.00343891 -0.00116744 0.0439836) 45460
(0.0022362 -0.00810977 0.0165798) 96437
(0.00942018 -0.00263044 0.0414329) 108785
(0.0042441 -0.00199076 0.0441194) 109700
(0.00395295 -0.00288049 0.0439457) 109604
(0.000131013 -0.00266773 0.039063) 43217
(0.0063783 -0.00145069 0.0461105) 110877
(0.00565106 0.000275657 0.044738) 110777
(0.00559201 0.00407441 0.0472656) 111861
(0.00511185 -0.00101179 0.0417502) 108602
(0.00739092 -0.000901087 0.0454704) 110875
(0.00312168 -0.00143668 0.0439575) 45458
(0.00600281 -0.00712168 0.0398899) 107533
(0.00780155 -0.00258677 0.0432924) 109789
(0.00618995 0.000408648 0.0481026) 111962
(0.00698812 -0.00325477 0.0421044) 108700
(0.00578933 -0.00733581 0.0434016) 109717
(0.00277355 -0.00126668 0.0421638) 44366
(0.00242408 -0.00382846 0.0414846) 108511
(0.00749683 -0.000305242 0.0458215) 110878
(0.00812186 0.00565813 0.0388493) 5469
(0.0138066 0.00168892 0.019631) 97991
(0.00601092 -0.00438433 0.0458884) 110801
(0.0081479 -0.00387914 0.0461921) 110892
(0.0079727 -0.00130679 0.0481244) 111971
(0.00332178 -0.00219161 0.0450498) 110692
(0.00699426 2.86962e-05 0.0481623) 111968
(0.00108776 -0.00393796 0.0453936) 46490
(0.00928046 -0.00278256 0.0457091) 110970
(0.00471201 -0.00550352 0.0453713) 110796
(0.00427716 -0.0047656 0.0456153) 6372
)


// ************************************************************************* //
