/*--------------------------------*- C++ -*----------------------------------*\
| =========                 |                                                 |
| \\      /  F ield         | OpenFOAM: The Open Source CFD Toolbox           |
|  \\    /   O peration     | Version:  2112                                  |
|   \\  /    A nd           | Website:  www.openfoam.com                      |
|    \\/     M anipulation  |                                                 |
\*---------------------------------------------------------------------------*/
FoamFile
{
    version     2.0;
    format      ascii;
    arch        "LSB;label=32;scalar=64";
    class       vectorField;
    location    "0.225/lagrangian/kinematicCloud";
    object      U;
}
// * * * * * * * * * * * * * * * * * * * * * * * * * * * * * * * * * * * * * //


100
(
(-0.314187 -0.17647 0.313743)
(0.00273033 -0.00199423 -0.187309)
(-0.04329 -0.00563076 -0.0903874)
(-0.148588 -0.000954911 0.0753171)
(-0.037976 0.0563197 0.293279)
(-0.00101343 -0.0867163 -0.41455)
(-0.266804 0.375553 -0.0456966)
(0.383745 0.274037 0.0340426)
(0.334707 -0.247017 0.269932)
(0.0895276 0.0224836 0.0294996)
(0.127965 -0.125517 -0.0944128)
(-0.00615404 0.0665647 -0.0528649)
(0.00404996 -0.015734 -0.00688449)
(-0.0110666 -0.00355291 -0.0333984)
(0.0157161 0.0051241 0.0367736)
(-0.0779389 0.0629144 0.225382)
(0.00830116 -0.00817928 -0.087499)
(0.0197296 -0.0113972 -0.0192612)
(-0.00899824 -0.0273232 -0.050025)
(0.0574147 -0.0081148 -0.0912185)
(-0.0229385 0.0157624 0.00160848)
(-0.00431099 0.0019197 -0.0640466)
(0.0180899 0.0826585 0.320514)
(-0.00613019 -0.0146 -0.193619)
(-0.125236 0.339628 2.36788)
(0.0856642 0.0190486 -0.174173)
(0.0453989 -0.000430487 -0.0171581)
(-0.0779444 0.00644888 -0.534366)
(-0.0070009 -0.00390473 -0.0679233)
(-0.320503 0.032974 -0.0480883)
(-0.0333878 -0.0316206 0.393135)
(-0.0860355 0.0285647 -0.121434)
(-0.015719 0.0419799 0.0929218)
(-0.0175999 0.0300205 0.716522)
(0.0597882 0.019509 -0.644677)
(0.0321128 0.0342652 0.15501)
(-0.00461651 0.00486903 -0.0738396)
(0.00564792 -0.0400208 0.242773)
(0.012505 -0.079592 0.305811)
(-0.0224093 0.175481 -0.297295)
(-0.000293961 -0.00881171 0.0768932)
(-0.509503 -0.220337 0.0538307)
(-0.0622432 0.0203397 0.260068)
(-0.0231375 0.00085265 0.211105)
(0.0915853 0.215398 0.0639274)
(0.219595 -0.231431 -0.017097)
(-0.0346932 0.00882581 0.70956)
(-0.056986 0.0162261 -0.111541)
(-0.0409278 0.11226 -0.25871)
(0.155198 -0.0288937 0.222915)
(-0.00466866 0.0705118 -0.289327)
(-0.0896923 -0.087937 0.366982)
(0.122872 0.00972559 0.293362)
(-0.0999004 0.000608047 0.0899096)
(-0.00158217 0.0197387 0.0619369)
(0.0112725 0.314651 -0.0842248)
(-0.106283 0.0632811 0.00451461)
(0.209389 -0.0369698 -0.321637)
(0.0619846 -0.00391104 0.101054)
(-0.0236164 -0.103534 0.0128585)
(0.0764044 -0.0719065 -0.106286)
(-0.117881 -0.00830516 0.411016)
(7.40667e-05 0.0162638 -0.172927)
(-0.0128535 0.0282902 -0.0121664)
(-0.0444114 -0.148181 0.0672582)
(0.200556 0.332438 0.00697032)
(0.0187002 0.0169478 0.0121334)
(-0.240487 0.0397862 0.186836)
(-0.0475008 -0.186325 -0.104427)
(-0.0643269 0.0286042 0.0313475)
(-0.000518503 0.293352 -0.429228)
(0.866769 0.0986572 0.192831)
(-0.00282075 -0.0336423 -0.0748922)
(-0.0104508 -0.00855965 0.0320909)
(-0.0195263 0.0126611 -0.0882653)
(-0.0261239 -0.165933 -0.0939138)
(0.440913 -0.0618415 -0.645049)
(-0.0110755 0.0386914 -0.047016)
(0.0734512 0.132192 -0.0601188)
(-0.145585 0.139593 -0.0987832)
(-0.0781316 0.0385116 0.0560325)
(0.0167097 0.0108398 0.41019)
(0.121321 0.158348 -0.0117162)
(0.216774 -0.0254954 0.139821)
(0.00831598 0.0412379 -0.105475)
(-0.00564979 -0.0368362 0.478558)
(0.107411 -0.102842 -0.205323)
(-0.042075 -0.00123803 -0.108058)
(-0.110885 0.119772 -0.170739)
(-0.015598 0.00681485 -0.338332)
(0.16483 0.309163 -0.517991)
(0.0195526 -0.0826915 0.0643309)
(-0.686941 0.111772 0.182142)
(0.0772051 0.00516099 -0.0749165)
(-0.0323865 -0.00245979 -0.0839354)
(-0.151645 0.137151 0.396934)
(-0.154429 -0.02218 -0.042287)
(0.0099694 -0.00344547 -0.346367)
(-0.0123263 0.0198079 -0.0669695)
(0.0228074 -0.00105336 -0.188611)
)


// ************************************************************************* //
