/*--------------------------------*- C++ -*----------------------------------*\
| =========                 |                                                 |
| \\      /  F ield         | OpenFOAM: The Open Source CFD Toolbox           |
|  \\    /   O peration     | Version:  2112                                  |
|   \\  /    A nd           | Website:  www.openfoam.com                      |
|    \\/     M anipulation  |                                                 |
\*---------------------------------------------------------------------------*/
FoamFile
{
    version     2.0;
    format      ascii;
    arch        "LSB;label=32;scalar=64";
    class       volScalarField;
    location    "1";
    object      alpha.water;
}
// * * * * * * * * * * * * * * * * * * * * * * * * * * * * * * * * * * * * * //

dimensions      [0 0 0 0 0 0 0];

internalField   nonuniform List<scalar> 
27200
(
1
1
1
1
1
1
1
1
1
1
1
1
1
1
1
1
1
1
1
1
1
1
1
1
1
1
1
1
1
1
1
1
1
1
1
1
1
1
1
1
1
1
1
1
1
1
1
1
1
1
1
1
1
1
1
1
1
1
1
1
1
1
1
1
1
1
1
1
1
1
1
1
1
1
1
1
1
1
1
1
1
1
1
1
1
1
1
1
1
1
1
1
1
1
1
1
1
1
1
1
1
1
1
1
1
1
1
1
1
1
1
1
1
1
1
1
1
1
1
1
1
1
1
1
1
1
1
1
1
1
1
1
1
1
1
1
1
1
1
1
1
1
1
1
1
1
1
1
1
1
1
1
1
1
1
1
1
1
1
1
1
1
1
1
1
1
1
1
1
1
1
1
1
1
1
1
1
1
1
1
1
1
1
1
1
1
1
1
1
1
1
1
1
1
1
1
1
1
1
1
1
1
1
1
1
1
1
1
1
1
1
1
1
1
1
1
1
1
1
1
1
1
1
1
1
1
1
1
1
1
1
1
1
1
1
1
1
1
1
1
1
1
1
1
1
1
1
1
1
1
1
1
1
1
1
1
1
1
1
1
1
1
1
1
1
1
1
1
1
1
1
1
1
1
1
1
1
1
1
1
1
1
1
1
1
1
1
1
1
1
1
1
1
1
1
1
1
1
1
1
1
1
1
1
1
1
1
1
1
1
1
1
1
1
1
1
1
1
1
1
1
1
1
1
1
1
1
1
1
1
1
1
1
1
1
1
1
1
1
1
1
1
1
1
1
1
1
1
1
1
1
1
1
1
1
1
1
1
1
1
1
1
1
1
1
1
1
1
1
1
1
1
1
1
1
1
1
1
1
1
1
1
1
1
1
1
1
1
1
1
1
1
1
1
1
1
1
1
1
1
1
1
1
1
1
1
1
1
1
1
1
1
1
1
1
1
1
1
1
1
1
1
1
1
1
1
1
1
1
1
1
1
1
1
1
1
1
1
1
1
1
1
1
1
1
1
1
1
1
1
1
1
1
1
1
1
1
1
1
1
1
1
1
1
1
1
1
1
1
1
1
1
1
1
1
1
1
1
1
1
1
1
1
1
1
1
1
1
1
1
1
1
1
1
1
1
1
1
1
1
1
1
1
1
1
1
1
1
1
1
1
1
1
1
1
1
1
1
1
1
1
1
1
1
1
1
1
1
1
1
1
1
1
1
1
1
1
1
1
1
1
1
1
1
1
1
1
1
1
1
1
1
1
1
1
1
1
1
1
1
1
1
1
1
1
1
1
1
1
1
1
1
1
1
1
1
1
1
1
1
1
1
1
1
1
1
1
1
1
1
1
1
1
1
1
1
1
1
1
1
1
1
1
1
1
1
1
1
1
1
1
1
1
1
1
1
1
1
1
1
1
1
1
1
1
1
1
1
1
1
1
1
1
1
1
1
1
1
1
1
1
1
1
1
1
1
1
1
1
1
1
1
1
1
1
1
1
1
1
1
1
1
1
1
1
1
1
1
1
1
1
1
1
1
1
1
1
1
1
1
1
1
1
1
1
1
1
1
1
1
1
1
1
1
1
1
1
1
1
1
1
1
1
1
1
1
1
1
1
1
1
1
1
1
1
1
1
1
1
1
1
1
1
1
1
1
1
1
1
1
1
1
1
1
1
1
1
1
1
1
1
1
1
1
1
1
1
1
1
1
1
1
1
1
1
1
1
1
1
1
1
1
1
1
1
1
1
1
1
1
1
1
1
1
1
1
1
1
1
1
1
1
1
1
1
1
1
1
1
1
1
1
1
1
1
1
1
1
1
1
1
1
1
1
1
1
1
1
1
1
1
1
1
1
1
1
1
1
1
1
1
1
1
1
1
1
1
1
1
1
1
1
1
1
1
1
1
1
1
1
1
1
1
1
1
1
1
1
1
1
1
1
1
1
1
1
1
1
1
1
1
1
1
1
1
1
1
1
1
1
1
1
1
1
1
1
1
1
1
1
1
1
1
1
1
1
1
1
1
1
1
1
1
1
1
1
1
1
1
1
1
1
1
1
1
1
1
1
1
1
1
1
1
1
1
1
1
1
1
1
1
1
1
1
1
1
1
1
1
1
1
1
1
1
1
1
1
1
1
1
1
1
1
1
1
1
1
1
1
1
1
1
1
1
1
1
1
1
1
1
1
1
1
1
1
1
1
1
1
1
1
1
1
1
1
1
1
1
1
1
1
1
1
1
1
1
1
1
1
1
1
1
1
1
1
1
1
1
1
1
1
1
1
1
1
1
1
1
1
1
1
1
1
1
1
1
1
1
1
1
1
1
1
1
1
1
1
1
1
1
1
1
1
1
1
1
1
1
1
1
1
1
1
1
1
1
1
1
1
1
1
1
1
1
1
1
1
1
1
1
1
1
1
1
1
1
1
1
1
1
1
1
1
1
1
1
1
1
1
1
1
1
1
1
1
1
1
1
1
1
1
1
1
1
1
1
1
1
1
1
1
1
1
1
1
1
1
1
1
1
1
1
1
1
1
1
1
1
1
1
1
1
1
1
1
1
1
1
1
1
1
1
1
1
1
1
1
1
1
1
1
1
1
1
1
1
1
1
1
1
1
1
1
1
1
1
1
1
1
1
1
1
1
1
1
1
1
1
1
1
1
1
1
1
1
1
1
1
1
1
1
1
1
1
1
1
1
1
1
1
1
1
1
1
1
1
1
1
1
1
1
1
1
1
1
1
1
1
1
1
1
1
1
1
1
1
1
1
1
1
1
1
1
1
1
1
1
1
1
1
1
1
1
1
1
1
1
1
1
1
1
1
1
1
1
1
1
1
1
1
1
1
1
1
1
1
1
1
1
1
1
1
1
1
1
1
1
1
1
1
1
1
1
1
1
1
1
1
1
1
1
1
1
1
1
1
1
1
1
1
1
1
1
1
1
1
1
1
1
1
1
1
1
1
1
1
1
1
1
1
1
1
1
1
1
1
1
1
1
1
1
1
1
1
1
1
1
1
1
1
1
1
1
1
1
1
1
1
1
1
1
1
1
1
1
1
1
1
1
1
1
1
1
1
1
1
1
1
1
1
1
1
1
1
1
1
1
1
1
1
1
1
1
1
1
1
1
1
1
1
1
1
1
1
1
1
1
1
1
1
1
1
1
1
1
1
1
1
1
1
1
1
1
1
1
1
1
1
1
1
1
1
1
1
1
1
1
1
1
1
1
1
1
1
1
1
1
1
1
1
1
1
1
1
1
1
1
1
1
1
1
1
1
1
1
1
1
1
1
1
1
1
1
1
1
1
1
1
1
1
1
1
1
1
1
1
1
1
1
1
1
1
1
1
1
1
1
1
1
1
1
1
1
1
1
1
1
1
1
1
1
1
1
1
1
1
1
1
1
1
1
1
1
1
1
1
1
1
1
1
1
1
1
1
1
1
1
1
1
1
1
1
1
1
1
1
1
1
1
1
1
1
1
1
1
1
1
1
1
1
1
1
1
1
1
1
1
1
1
1
1
1
1
1
1
1
1
1
1
1
1
1
1
1
1
1
1
1
1
1
1
1
1
1
1
1
1
1
1
1
1
1
1
1
1
1
1
1
1
1
1
1
1
1
1
1
1
1
1
1
1
1
1
1
1
1
1
1
1
1
1
1
1
1
1
1
1
1
1
1
1
1
1
1
1
1
1
1
1
1
1
1
1
1
1
1
1
1
1
1
1
1
1
1
1
1
1
1
1
1
1
1
1
1
1
1
1
1
1
1
1
1
1
1
1
1
1
1
1
1
1
1
1
1
1
1
1
1
1
1
1
1
1
1
1
1
1
1
1
1
1
1
1
1
1
1
1
1
1
1
1
1
1
1
1
1
1
1
1
1
1
1
1
1
1
1
1
1
1
1
1
1
1
1
1
1
1
1
1
1
1
1
1
1
1
1
1
1
1
1
1
1
1
1
1
1
1
1
1
1
1
1
1
1
1
1
1
1
1
1
1
1
1
1
1
1
1
1
1
1
1
1
1
1
1
1
1
1
1
1
1
1
1
1
1
1
1
1
1
1
1
1
1
1
1
1
1
1
1
1
1
1
1
1
1
1
1
1
1
1
1
1
1
1
1
1
1
1
1
1
1
1
1
1
1
1
1
1
1
1
1
1
1
1
1
1
1
1
1
1
1
1
1
1
1
1
1
1
1
1
1
1
1
1
1
1
1
1
1
1
1
1
1
1
1
1
1
1
1
1
1
1
1
1
1
1
1
1
1
1
1
1
1
1
1
1
1
1
1
1
1
1
1
1
1
1
1
1
1
1
1
1
1
1
1
1
1
1
1
1
1
1
1
1
1
1
1
1
1
1
1
1
1
1
1
1
1
1
1
1
1
1
1
1
1
1
1
1
1
1
1
1
1
1
1
1
1
1
1
1
1
1
1
1
1
1
1
1
1
1
1
1
1
1
1
1
1
1
1
1
1
1
1
1
1
1
1
1
1
1
1
1
1
1
1
1
1
1
1
1
1
1
1
1
1
1
1
1
1
1
1
1
1
1
1
1
1
1
1
1
1
1
1
1
1
1
1
1
1
1
1
1
1
1
1
1
1
1
1
1
1
1
1
1
1
1
1
1
1
1
1
1
1
1
1
1
1
1
1
1
1
1
1
1
1
1
1
1
1
1
1
1
1
1
1
1
1
1
1
1
1
1
1
1
1
1
1
1
1
1
1
1
1
1
1
1
1
1
1
1
1
1
1
1
1
1
1
1
1
1
1
1
1
1
1
1
1
1
1
1
1
1
1
1
1
1
1
1
1
1
1
1
1
1
1
1
1
1
1
1
1
1
1
1
1
1
1
1
1
1
1
1
1
1
1
1
1
1
1
1
1
1
1
1
1
1
1
1
1
1
1
1
1
1
1
1
1
1
1
1
1
1
1
1
1
1
1
1
1
1
1
1
1
1
1
1
1
1
1
1
1
1
1
1
1
1
1
1
1
1
1
1
1
1
1
1
1
1
1
1
1
1
1
1
1
1
1
1
1
1
1
1
1
1
1
1
1
1
1
1
1
1
1
1
1
1
1
1
1
1
1
1
1
1
1
1
1
1
1
1
1
1
1
1
1
1
1
1
1
1
1
1
1
1
1
1
1
1
1
1
1
1
1
1
1
1
1
1
1
1
1
1
1
1
1
1
1
1
1
1
1
1
1
1
1
1
1
1
1
1
1
1
1
1
1
1
1
1
1
1
1
1
1
1
1
1
1
1
1
1
1
1
1
1
1
1
1
1
1
1
1
1
1
1
1
1
1
1
1
1
1
1
1
1
1
1
1
1
1
1
1
1
1
1
1
1
1
1
1
1
1
1
1
1
1
1
1
1
1
1
1
1
1
1
1
1
1
1
1
1
1
1
1
1
1
1
1
1
1
1
1
1
1
1
1
1
1
1
1
1
1
1
1
1
1
1
1
1
1
1
1
1
1
1
1
1
1
1
1
1
1
1
1
1
1
1
1
1
1
1
1
1
1
1
1
1
1
1
1
1
1
1
1
1
1
1
1
1
1
1
1
1
1
1
1
1
1
1
1
1
1
1
1
1
1
1
1
1
1
1
1
1
1
1
1
1
1
1
1
1
1
1
1
1
1
1
1
1
1
1
1
1
1
1
1
1
1
1
1
1
1
1
1
1
1
1
1
1
1
1
1
1
1
1
1
1
1
1
1
1
1
1
1
1
1
1
1
1
1
1
1
1
1
1
1
1
1
1
1
1
1
1
1
1
1
1
1
1
1
1
1
1
1
1
1
1
1
1
1
1
1
1
1
1
1
1
1
1
1
1
1
1
1
1
1
1
1
1
1
1
1
1
1
1
1
1
1
1
1
1
1
1
1
1
1
1
1
1
1
1
1
1
1
1
1
1
1
1
1
1
1
1
1
1
1
1
1
1
1
1
1
1
1
1
1
1
1
1
1
1
1
1
1
1
1
1
1
1
1
1
1
1
1
1
1
1
1
1
1
1
1
1
1
1
1
1
1
1
1
1
1
1
1
1
1
1
1
1
1
1
1
1
1
1
1
1
1
1
1
1
1
1
1
1
1
1
1
1
1
1
1
1
1
1
1
1
1
1
1
1
1
1
1
1
1
1
1
1
1
1
1
1
1
1
1
1
1
1
1
1
1
1
1
1
1
1
1
1
1
1
1
1
1
1
1
1
1
1
1
1
1
1
1
1
1
1
1
1
1
1
1
1
1
1
1
1
1
1
1
1
1
1
1
1
1
1
1
1
1
1
1
1
1
1
1
1
1
1
1
1
1
1
1
1
1
1
1
1
1
1
1
1
1
1
1
1
1
1
1
1
1
1
1
1
1
1
1
1
1
1
1
1
1
1
1
1
1
1
1
1
1
1
1
1
1
1
1
1
1
1
1
1
1
1
1
1
1
1
1
1
1
1
1
1
1
1
1
1
1
1
1
1
1
1
1
1
1
1
1
1
1
1
1
1
1
1
1
1
1
1
1
1
1
1
1
1
1
1
1
1
1
1
1
1
1
1
1
1
1
1
1
1
1
1
1
1
1
1
1
1
1
1
1
1
1
1
1
1
1
1
1
1
1
1
1
1
1
1
1
1
1
1
1
1
1
1
1
1
1
1
1
1
1
1
1
1
1
1
1
1
1
1
1
1
1
1
1
1
1
1
1
1
1
1
1
1
1
1
1
1
1
1
1
1
1
1
1
1
1
1
1
1
1
1
1
1
1
1
1
1
1
1
1
1
1
1
1
1
1
1
1
1
1
1
1
1
1
1
1
1
1
1
1
1
1
1
1
1
1
1
1
1
1
1
1
1
1
1
1
1
1
1
1
1
1
1
1
1
1
1
1
1
1
1
1
1
1
1
1
1
1
1
1
1
1
1
1
1
1
1
1
1
1
1
1
1
1
1
1
1
1
1
1
1
1
1
1
1
1
1
1
1
1
1
1
1
1
1
1
1
1
1
1
1
1
1
1
1
1
1
1
1
1
1
1
1
1
1
1
1
1
1
1
1
1
1
1
1
1
1
1
1
1
1
1
1
1
1
1
1
1
1
1
1
1
1
1
1
1
1
1
1
1
1
1
1
1
1
1
1
1
1
1
1
1
1
1
1
1
1
1
1
1
1
1
1
1
1
1
1
1
1
1
1
1
1
1
1
1
1
1
1
1
1
1
1
1
1
1
1
1
1
1
1
1
1
1
1
1
1
1
1
1
1
1
1
1
1
1
1
1
1
1
1
1
1
1
1
1
1
1
1
1
1
1
1
1
1
1
1
1
1
1
1
1
1
1
1
1
1
1
1
1
1
1
1
1
1
1
1
1
1
1
1
1
1
1
1
1
1
1
1
1
1
1
1
1
1
1
1
1
1
1
1
1
1
1
1
1
1
1
1
1
1
1
1
1
1
1
1
1
1
1
1
1
1
1
1
1
1
1
1
1
1
1
1
1
1
1
1
1
1
1
1
1
1
1
1
1
1
1
1
1
1
1
1
1
1
1
1
1
1
1
1
1
1
1
1
1
1
1
1
1
1
1
1
1
1
1
1
1
1
1
1
1
1
1
1
1
1
1
1
1
1
1
1
1
1
1
1
1
1
1
1
1
1
1
1
1
1
1
1
1
1
1
1
1
1
1
1
1
1
1
1
1
1
1
1
1
1
1
1
1
1
1
1
1
1
1
1
1
1
1
1
1
1
1
1
1
1
1
1
1
1
1
1
1
1
1
1
1
1
1
1
1
1
1
1
1
1
1
1
1
1
1
1
1
1
1
1
1
1
1
1
1
1
1
1
1
1
1
1
1
1
1
1
1
1
1
1
1
1
1
1
1
1
1
1
1
1
1
1
1
1
1
1
1
1
1
1
1
1
1
1
1
1
1
1
1
1
1
1
1
1
1
1
1
1
1
1
1
1
1
1
1
1
1
1
1
1
1
1
1
1
1
1
1
1
1
1
1
1
1
1
1
1
1
1
1
1
1
1
1
1
1
1
1
1
1
1
1
1
1
1
1
1
1
1
1
1
1
1
1
1
1
1
1
1
1
1
1
1
1
1
1
1
1
1
1
1
1
1
1
1
1
1
1
1
1
1
1
1
1
1
1
1
1
1
1
1
1
1
1
1
1
1
1
1
1
1
1
1
1
1
1
1
1
1
1
1
1
1
1
1
1
1
1
1
1
1
1
1
1
1
1
1
1
1
1
1
1
1
1
1
1
1
1
1
1
1
1
1
1
1
1
1
1
1
1
1
1
1
1
1
1
1
1
1
1
1
1
1
1
1
1
1
1
1
1
1
1
1
1
1
1
1
1
1
1
1
1
1
1
1
1
1
1
1
1
1
1
1
1
1
1
1
1
1
1
1
1
1
1
1
1
1
1
1
1
1
1
1
1
1
1
1
1
1
1
1
1
1
1
1
1
1
1
1
1
1
1
1
1
1
1
1
1
1
1
1
1
1
1
1
1
1
1
1
1
1
1
1
1
1
1
1
1
1
1
1
1
1
1
1
1
1
1
1
1
1
1
1
1
1
1
1
1
1
1
1
1
1
1
1
1
1
1
1
1
1
1
1
1
1
1
1
1
1
1
1
1
1
1
1
1
1
1
1
1
1
1
1
1
1
1
1
1
1
1
1
1
1
1
1
1
1
1
1
1
1
1
1
1
1
1
1
1
1
1
1
1
1
1
1
1
1
1
1
1
1
1
1
1
1
1
1
1
1
1
1
1
1
1
1
1
1
1
1
1
1
1
1
1
1
1
1
1
1
1
1
1
1
1
1
1
1
1
1
1
1
1
1
1
1
1
1
1
1
1
1
1
1
1
1
1
1
1
1
1
1
1
1
1
1
1
1
1
1
1
1
1
1
1
1
1
1
1
1
1
1
1
1
1
1
1
1
1
1
1
1
1
1
1
1
1
1
1
1
1
1
1
1
1
1
1
1
1
1
1
1
1
1
1
1
1
1
1
1
1
1
1
1
1
1
1
1
1
1
1
1
1
1
1
1
1
1
1
1
1
1
1
1
1
1
1
1
1
1
1
1
1
1
1
1
1
1
1
1
1
1
1
1
1
1
1
1
1
1
1
1
1
1
1
1
1
1
1
1
1
1
1
1
1
1
1
1
1
1
1
1
1
1
1
1
1
1
1
1
1
1
1
1
1
1
1
1
1
1
1
1
1
1
1
1
1
1
1
1
1
1
1
1
1
1
1
1
1
1
1
1
1
1
1
1
1
1
1
1
1
1
1
1
1
1
1
1
1
1
1
1
1
1
1
1
1
1
1
1
1
1
1
1
1
1
1
1
1
1
1
1
1
1
1
1
1
1
1
1
1
1
1
1
1
1
1
1
1
1
1
1
1
1
1
1
1
1
1
1
1
1
1
1
1
1
1
1
1
1
1
1
1
1
1
1
1
1
1
1
1
1
1
1
1
1
1
1
1
1
1
1
1
1
1
1
1
1
1
1
1
1
1
1
1
1
1
1
1
1
1
1
1
1
1
1
1
1
1
1
1
1
1
1
1
1
1
1
1
1
1
1
1
1
1
1
1
1
1
1
1
1
1
1
1
1
1
1
1
1
1
1
1
1
1
1
1
1
1
1
1
1
1
1
1
1
1
1
1
1
1
1
1
1
1
1
1
1
1
1
1
1
1
1
1
1
1
1
1
1
1
1
1
1
1
1
1
1
1
1
1
1
1
1
1
1
1
1
1
1
1
1
1
1
1
1
1
1
1
1
1
1
1
1
1
1
1
1
1
1
1
1
1
1
1
1
1
1
1
1
1
1
1
1
1
1
1
1
1
1
1
1
1
1
1
1
1
1
1
1
1
1
1
1
1
1
1
1
1
1
1
1
1
1
1
1
1
1
1
1
1
1
1
1
1
1
1
1
1
1
1
1
1
1
1
1
1
1
1
1
1
1
1
1
1
1
1
1
1
1
1
1
1
1
1
1
1
1
1
1
1
1
1
1
1
1
1
1
1
1
1
1
1
1
1
1
1
1
1
1
1
1
1
1
1
1
1
1
1
1
1
1
1
1
1
1
1
1
1
1
1
1
1
1
1
1
1
1
1
1
1
1
1
1
1
1
1
1
1
1
1
1
1
1
1
1
1
1
1
1
1
1
1
1
1
1
1
1
1
1
1
1
1
1
1
1
1
1
1
1
1
1
1
1
1
1
1
1
1
1
1
1
1
1
1
1
1
1
1
1
1
1
1
1
1
1
1
1
1
1
1
1
1
1
1
1
1
1
1
1
1
1
1
1
1
1
1
1
1
1
1
1
1
1
1
1
1
1
1
1
1
1
1
1
1
1
1
1
1
1
1
1
1
1
1
1
1
1
1
1
1
1
1
1
1
1
1
1
1
1
1
1
1
1
1
1
1
1
1
1
1
1
1
1
1
1
1
1
1
1
1
1
1
1
1
1
1
1
1
1
1
1
1
1
1
1
1
1
1
1
1
1
1
1
1
1
1
1
1
1
1
1
1
1
1
1
1
1
1
1
1
1
1
1
1
1
1
1
1
1
1
1
1
1
1
1
1
1
1
1
1
1
1
1
1
1
1
1
1
1
1
1
1
1
1
1
1
1
1
1
1
1
1
1
1
1
1
1
1
1
1
1
1
1
1
1
1
1
1
1
1
1
1
1
1
1
1
1
1
1
1
1
1
1
1
1
1
1
1
1
1
1
1
1
1
1
1
1
1
1
1
1
1
1
1
1
1
1
1
1
1
1
1
1
1
1
1
1
1
1
1
1
1
1
1
1
1
1
1
1
1
1
1
1
1
1
1
1
1
1
1
1
1
1
1
1
1
1
1
1
1
1
1
1
1
1
1
1
1
1
1
1
1
1
1
1
1
1
1
1
1
1
1
1
1
1
1
1
1
1
1
1
1
1
1
1
1
1
1
1
1
1
1
1
1
1
1
1
1
1
1
1
1
1
1
1
1
1
1
1
1
1
1
1
1
1
1
1
1
1
1
1
1
1
1
1
1
1
1
1
1
1
1
1
1
1
1
1
1
1
1
1
1
1
1
1
1
1
1
1
1
1
1
1
1
1
1
1
1
1
1
1
1
1
1
1
1
1
1
1
1
1
1
1
1
1
1
1
1
1
1
1
1
1
1
1
1
1
1
1
1
1
1
1
1
1
1
1
1
1
1
1
1
1
1
1
1
1
1
1
1
1
1
1
1
1
1
1
1
1
1
1
1
1
1
1
1
1
1
1
1
1
1
1
1
1
1
1
1
1
1
1
1
1
1
1
1
1
1
1
1
1
1
1
1
1
1
1
1
1
1
1
1
1
1
1
1
1
1
1
1
1
1
1
1
1
1
1
1
1
1
1
1
1
1
1
1
1
1
1
1
1
1
1
1
1
1
1
1
1
1
1
1
1
1
1
1
1
1
1
1
1
1
1
1
1
1
1
1
1
1
1
1
1
1
1
1
1
1
1
1
1
1
1
1
1
1
1
1
1
1
1
1
1
1
1
1
1
1
1
1
1
1
1
1
1
1
1
1
1
1
1
1
1
1
1
1
1
1
1
1
1
1
1
1
1
1
1
1
1
1
1
1
1
1
1
1
1
1
1
1
1
1
1
1
1
1
1
1
1
1
1
1
1
1
1
1
1
1
1
1
1
1
1
1
1
1
1
1
1
1
1
1
1
1
1
1
1
1
1
1
1
1
1
1
1
1
1
1
1
1
1
1
1
1
1
1
1
1
1
1
1
1
1
1
1
1
1
1
1
1
1
1
1
1
1
1
1
1
1
1
1
1
1
1
1
1
1
1
1
1
1
1
1
1
1
1
1
1
1
1
1
1
1
1
1
1
1
1
1
1
1
1
1
1
1
1
1
1
1
1
1
1
1
1
1
1
1
1
1
1
1
1
1
1
1
1
1
1
1
1
1
1
1
1
1
1
1
1
1
1
1
1
1
1
1
1
1
1
1
1
1
1
1
1
1
1
1
1
1
1
1
1
1
1
1
1
1
1
1
1
1
1
1
1
1
1
1
1
1
1
1
1
1
1
1
1
1
1
1
1
1
1
1
1
1
1
1
1
1
1
1
1
1
1
1
1
1
1
1
1
1
1
1
1
1
1
1
1
1
1
1
1
1
1
1
1
1
1
1
1
1
1
1
1
1
1
1
1
1
1
1
1
1
1
1
1
1
1
1
1
1
1
1
1
1
1
1
1
1
1
1
1
1
1
1
1
1
1
1
1
1
1
1
1
1
1
1
1
1
1
1
1
1
1
1
1
1
1
1
1
1
1
1
1
1
1
1
1
1
1
1
1
1
1
1
1
1
1
1
1
1
1
1
1
1
1
1
1
1
1
1
1
1
1
1
1
1
1
1
1
1
1
1
1
1
1
1
1
1
1
1
1
1
1
1
1
1
1
1
1
1
1
1
1
1
1
1
1
1
1
1
1
1
1
1
1
1
1
1
1
1
1
1
1
1
1
1
1
1
1
1
1
1
1
1
1
1
1
1
1
1
1
1
1
1
1
1
1
1
1
1
1
1
1
1
1
1
1
1
1
1
1
1
1
1
1
1
1
1
1
1
1
1
1
1
1
1
1
1
1
1
1
1
1
1
1
1
1
1
1
1
1
1
1
1
1
1
1
1
1
1
1
1
1
1
1
1
1
1
1
1
1
1
1
1
1
1
1
1
1
1
1
1
1
1
1
1
1
1
1
1
1
1
1
1
1
1
1
1
1
1
1
1
1
1
1
1
1
1
1
1
1
1
1
1
1
1
1
1
1
1
1
1
1
1
1
1
1
1
1
1
1
1
1
1
1
1
1
1
1
1
1
1
1
1
1
1
1
1
1
1
1
1
1
1
1
1
1
1
1
1
1
1
1
1
1
1
1
1
1
1.00001
1.00001
1.00001
1.00001
1.00001
1.00001
1.00001
1.00001
1.00001
1
1
1.00001
1
1
1
1
1
1
1
1
1
1
1
1
1
1
1
1
1
1
1
1
1
1
1
1
1
1.00001
1.00001
1.00001
1.00001
1.00001
1
1
1.00001
1.00001
1.00001
1
1
1.00001
1
1
1
1
1
1
1
1
1
1
1
1
1
1
1
1
1
1
1
1
1
1
1
1
1
1
1
1
1.00001
1.00001
1.00001
1.00001
1
1
1
1
1
1
1
1
1
1
1
1
1
1
1
1
1
1
1
0.882902
0.883733
0.884557
0.884389
0.885689
0.883371
0.880365
0.874837
0.868211
0.869093
0.866969
0.861085
0.851768
0.842279
0.836711
0.836357
0.836666
0.836433
0.835637
0.834864
0.835145
0.835918
0.836766
0.836934
0.836754
0.836434
0.836312
0.837008
0.838852
0.841986
0.846049
0.850688
0.855306
0.859844
0.864592
0.869531
0.874265
0.878098
0.880811
0.882295
0.859096
0.860503
0.862281
0.864089
0.866061
0.866902
0.866427
0.865935
0.866096
0.86665
0.866697
0.865041
0.861396
0.857722
0.85438
0.850971
0.846454
0.841245
0.836084
0.831789
0.828784
0.826968
0.825548
0.824172
0.822869
0.821856
0.82186
0.823393
0.82673
0.830722
0.834295
0.836817
0.839258
0.842118
0.84532
0.848982
0.852625
0.855444
0.857128
0.858183
0.86806
0.870837
0.872873
0.87428
0.875371
0.876335
0.877116
0.877578
0.877297
0.87594
0.873523
0.870499
0.867306
0.864123
0.860926
0.857375
0.853159
0.848563
0.844841
0.842429
0.840672
0.838819
0.836605
0.834139
0.831735
0.829488
0.827668
0.82657
0.826293
0.826847
0.828665
0.831733
0.835067
0.838669
0.842707
0.847119
0.851814
0.856603
0.860905
0.864608
0.877748
0.879906
0.881494
0.882103
0.881878
0.881645
0.881454
0.88088
0.879896
0.878568
0.876762
0.874285
0.870929
0.866605
0.861638
0.856797
0.852538
0.848547
0.84462
0.841221
0.839061
0.83783
0.836717
0.835524
0.834725
0.834774
0.834979
0.835388
0.836189
0.837719
0.839976
0.843156
0.847232
0.851476
0.855604
0.859753
0.863973
0.868058
0.871883
0.87514
0.888527
0.890142
0.891306
0.891292
0.890163
0.889657
0.889795
0.889479
0.888531
0.887121
0.885066
0.881936
0.877995
0.87378
0.869651
0.866541
0.864354
0.861579
0.857896
0.85524
0.854344
0.85412
0.853558
0.852799
0.852054
0.851619
0.851551
0.851894
0.852822
0.854488
0.8569
0.859875
0.863271
0.866935
0.870493
0.873787
0.877136
0.880618
0.883863
0.886495
0.0783648
0.0835551
0.0897685
0.10238
0.122131
0.0984775
0.0825839
0.0855611
0.0945559
0.0989146
0.0794451
0.0596264
0.0566469
0.0585286
0.0600749
0.0594632
0.0575171
0.0554352
0.0533793
0.0524056
0.0518074
0.0520383
0.0522215
0.0523129
0.0524057
0.0524439
0.0523859
0.0517851
0.0511195
0.0507908
0.0510116
0.0518433
0.0530697
0.0550015
0.057305
0.0597201
0.0624852
0.0657803
0.0696259
0.0738228
0.0851245
0.0872575
0.0890197
0.0904274
0.0922962
0.09541
0.096726
0.0966317
0.0958796
0.0968999
0.0985095
0.0984743
0.09531
0.0944849
0.0942264
0.0937978
0.0899138
0.0856619
0.083156
0.0824616
0.0821461
0.0813348
0.0797541
0.0778875
0.0767938
0.0766621
0.076167
0.075149
0.0738317
0.072465
0.0718926
0.072069
0.0725737
0.0732626
0.0742487
0.0756454
0.0773373
0.0791552
0.0810402
0.0829913
0.086033
0.0907403
0.0953117
0.0998377
0.104225
0.108178
0.110966
0.112563
0.112696
0.111292
0.107918
0.103598
0.0999786
0.0977295
0.0967718
0.0958801
0.0943063
0.0918527
0.0903332
0.0901064
0.0899527
0.0889957
0.0870332
0.0841355
0.0810596
0.078548
0.07636
0.074121
0.0717932
0.0695436
0.0678046
0.0667646
0.0664614
0.0668726
0.0680468
0.0698322
0.0720116
0.0746172
0.0777013
0.0814117
0.0858413
0.0896145
0.0933581
0.0973573
0.101083
0.103549
0.10449
0.104471
0.104155
0.103545
0.1024
0.100132
0.0965237
0.0921465
0.0879774
0.0843529
0.0813622
0.079059
0.0771905
0.0754362
0.0737098
0.0720854
0.0708256
0.0701477
0.069995
0.0701082
0.0700528
0.0696764
0.0689605
0.0678729
0.0666283
0.0655746
0.0651735
0.0655697
0.0667442
0.0685159
0.0708479
0.0737553
0.0775018
0.0816836
0.080342
0.0838084
0.0875051
0.0919416
0.0963802
0.0993208
0.100508
0.100859
0.100753
0.100051
0.0983058
0.0948305
0.0901388
0.0856273
0.0819936
0.0792726
0.0775657
0.0768735
0.0767115
0.0764469
0.0759358
0.0751257
0.074204
0.0732571
0.0722031
0.07103
0.0697191
0.0682464
0.0665715
0.0647847
0.0631177
0.0617779
0.0610456
0.0611576
0.0621522
0.0638258
0.0660948
0.0689946
0.0725665
0.0764098
-1.82735e-05
-1.38757e-05
-2.36364e-05
0.000242695
-3.77121e-05
2.77237e-07
2.81946e-07
-3.79342e-07
-0.000104159
5.72862e-05
3.62067e-05
5.75362e-06
1.70917e-06
-2.1461e-05
-3.73981e-05
-9.4737e-06
1.30008e-07
-2.04602e-05
-2.12234e-05
-4.35585e-05
-4.39934e-05
-5.13171e-05
-4.59324e-05
-4.58678e-05
-4.41829e-05
-4.00392e-05
-3.54516e-05
-3.14815e-05
-2.79817e-05
-2.51153e-05
-2.27598e-05
-1.78932e-05
-9.30919e-06
-6.09539e-06
-1.02614e-05
-1.33604e-05
-1.574e-05
-1.68997e-05
-1.73885e-05
-1.68142e-05
-2.33543e-05
-2.83711e-05
-3.01932e-05
-4.66292e-05
-4.34383e-05
-4.34883e-05
-2.03299e-05
-6.26239e-06
2.25631e-05
1.76758e-05
-5.1574e-06
3.16786e-06
-2.01471e-05
2.46426e-05
5.57982e-05
6.97705e-05
0.000312349
7.91889e-05
-4.14958e-06
-5.20798e-06
1.97219e-05
-2.29288e-06
-3.29909e-06
-2.84035e-06
-2.28623e-06
-1.78412e-06
-1.43437e-06
-1.24509e-06
-8.91544e-07
-6.58709e-07
-6.65477e-07
-6.75568e-07
-3.75078e-07
-3.12329e-07
-3.43075e-07
-3.48056e-06
-7.78489e-06
-1.21815e-05
-1.66106e-05
-2.0911e-05
-5.38972e-06
-5.7042e-06
-8.5536e-06
-1.25697e-05
-1.84259e-05
-2.7087e-05
-2.76812e-05
-2.44898e-05
-2.02667e-05
-1.52945e-05
-5.24626e-06
7.1509e-06
1.26006e-05
1.95105e-05
3.32827e-05
3.72161e-05
9.63296e-05
7.21218e-05
1.21623e-05
2.06428e-05
3.28082e-05
3.42732e-05
2.51931e-05
1.47722e-05
7.86009e-06
2.90504e-06
-1.00092e-06
-4.07053e-06
-6.27188e-06
-8.0159e-06
-9.28986e-06
-9.88774e-06
-1.05627e-05
-1.05984e-05
-9.98084e-06
-9.16129e-06
-8.27957e-06
-7.53911e-06
-6.66309e-06
-6.22064e-06
-1.15889e-05
-1.2876e-05
-1.35291e-05
-1.47613e-05
-1.54113e-05
-1.52754e-05
-1.2583e-05
-8.4982e-06
-5.86698e-06
-4.42324e-06
-4.87965e-06
-4.89217e-06
-4.05712e-06
-2.39852e-06
-2.4483e-06
-3.44064e-07
-1.48829e-06
-4.0695e-06
-9.3386e-06
-9.4345e-06
-9.2964e-06
-8.73508e-06
-8.34161e-06
-7.77838e-06
-7.45938e-06
-7.05299e-06
-6.32552e-06
-6.10996e-06
-6.75479e-06
-7.90413e-06
-9.05445e-06
-1.00453e-05
-1.11293e-05
-1.22078e-05
-1.28354e-05
-1.3225e-05
-1.33282e-05
-1.33155e-05
-1.23017e-05
-1.17268e-05
-1.01173e-05
-1.06763e-05
-1.13047e-05
-1.22145e-05
-1.267e-05
-1.3599e-05
-1.43315e-05
-1.4652e-05
-1.48577e-05
-1.42671e-05
-1.21436e-05
-1.05643e-05
-1.00313e-05
-1.19426e-05
-1.64103e-05
-2.17448e-05
-2.4994e-05
-2.69276e-05
-2.79686e-05
-2.73878e-05
-2.53762e-05
-2.34319e-05
-1.97926e-05
-1.55422e-05
-1.2294e-05
-1.05496e-05
-9.83066e-06
-9.57122e-06
-9.49711e-06
-9.42132e-06
-9.11562e-06
-8.95234e-06
-9.13966e-06
-9.31793e-06
-9.56122e-06
-9.75535e-06
-1.00659e-05
-1.03927e-05
-1.03276e-05
-1.0474e-05
-1.05518e-07
-2.85989e-06
-1.35059e-06
-8.22155e-06
-2.80628e-05
3.76562e-07
1.0379e-07
8.12459e-08
2.75911e-08
-1.16408e-05
2.26715e-05
4.70885e-07
1.54734e-07
2.3617e-07
2.82988e-07
6.7548e-08
6.48016e-08
3.0693e-08
5.10878e-09
6.44185e-09
2.11911e-09
1.02967e-09
-5.06051e-09
-1.88638e-09
-7.56497e-09
-1.46846e-11
-1.10469e-09
-1.1683e-09
4.78843e-09
8.79167e-09
1.26941e-08
1.11583e-08
7.5823e-08
3.31517e-08
7.0898e-09
-4.31862e-09
-1.65723e-08
1.91886e-08
-9.66281e-09
7.34233e-10
-5.92365e-10
-1.23925e-09
-3.32015e-09
-2.63037e-09
-3.37295e-10
2.9718e-07
5.74332e-08
1.57661e-08
5.26678e-06
1.15693e-05
3.39243e-06
7.63206e-07
-1.96451e-06
-4.01687e-06
-7.21519e-06
-2.32321e-06
-3.85462e-07
-7.91965e-08
-7.96936e-08
-3.12763e-09
6.44863e-09
-3.17133e-08
-9.21285e-09
-1.26844e-09
-7.58593e-10
-3.20855e-10
-2.69395e-11
-5.53724e-09
-3.33503e-09
-3.62994e-09
-9.92785e-09
-1.0434e-08
-6.38024e-09
5.33755e-09
2.47741e-11
-6.03402e-09
-2.31366e-09
-6.26121e-10
-1.32622e-09
-1.11515e-09
-1.27022e-09
-1.30331e-10
-8.70332e-11
6.84019e-11
8.51907e-11
5.13765e-10
-1.79857e-08
-8.90729e-08
1.50344e-07
7.2919e-07
1.56923e-06
2.71432e-06
4.15025e-06
5.596e-06
6.48922e-06
5.08193e-06
5.92438e-06
4.34953e-06
2.19929e-07
-3.50933e-06
-3.585e-06
-2.10777e-06
-1.06434e-06
-5.00878e-07
-3.07326e-07
-2.34378e-07
-1.46608e-07
-9.05746e-08
1.58587e-08
-9.19643e-08
-1.13155e-07
-1.22452e-07
-1.36841e-07
-1.07656e-07
-4.30552e-08
-1.51429e-08
-3.62464e-09
-7.5381e-11
-6.00569e-09
-4.44019e-09
-2.51094e-09
-2.73893e-09
-2.41996e-09
-2.30428e-09
-2.52968e-09
1.96848e-08
7.31814e-09
5.21528e-09
5.28119e-08
1.56399e-07
4.84656e-07
6.9322e-07
8.40443e-07
9.87961e-07
9.36367e-07
5.90604e-07
5.1684e-07
4.44548e-07
2.4189e-07
3.5403e-07
8.18536e-07
1.04223e-06
8.47257e-07
3.84585e-07
2.15905e-07
2.37898e-07
2.75938e-07
2.46785e-07
1.46264e-07
-1.06115e-08
-1.26643e-07
-1.94111e-07
-2.04798e-07
-1.88803e-07
-1.23084e-07
-1.02814e-07
-3.99289e-08
4.18851e-08
-1.10943e-08
-3.71077e-09
-2.55996e-08
-4.56849e-08
-3.00312e-08
-9.43672e-09
-4.4129e-09
6.05131e-09
2.70475e-08
6.40077e-08
1.56048e-07
4.37756e-07
1.024e-06
1.20939e-06
5.4209e-07
3.01873e-07
1.87767e-07
1.40646e-07
3.19216e-08
4.10389e-09
-1.09363e-08
-2.03828e-08
4.16451e-08
5.97005e-08
1.08754e-07
1.88067e-07
2.30119e-07
1.40093e-07
2.50728e-08
-3.33904e-08
-4.29143e-08
-5.05569e-08
-7.62057e-08
-7.46733e-08
-6.27902e-08
-5.14786e-08
-6.86898e-08
-2.45773e-08
-1.90301e-08
-2.74979e-08
-3.15874e-08
-3.67588e-08
3.8859e-08
1.004e-07
7.3529e-06
3.78007e-05
-1.26107e-06
1.66527e-06
8.77642e-07
9.67083e-08
4.71488e-08
5.11776e-08
6.45216e-08
4.93016e-08
2.12146e-07
5.49534e-07
1.18981e-06
1.37747e-06
4.56242e-07
1.47598e-07
1.12463e-07
4.86525e-08
3.90938e-08
3.28701e-08
2.90211e-08
1.00512e-08
-1.67276e-08
3.91431e-10
1.30982e-08
3.84997e-08
4.11183e-08
4.11514e-08
3.24873e-08
5.18535e-07
1.23365e-06
1.22221e-06
6.37405e-07
6.17126e-07
3.65195e-06
3.70156e-06
2.21078e-06
1.06462e-07
3.73664e-08
-4.08959e-10
2.44918e-07
6.67718e-06
5.49209e-06
3.15922e-06
2.04172e-07
3.40093e-08
5.52692e-08
1.055e-07
6.78636e-08
3.07982e-08
8.90467e-08
-2.51254e-08
5.81127e-07
-4.83068e-07
1.79229e-07
2.06252e-07
5.71644e-07
1.25474e-06
1.57731e-06
1.38631e-06
9.60239e-07
4.66307e-07
1.7029e-07
7.43817e-08
3.38773e-08
8.10941e-09
3.57278e-10
1.90798e-10
2.0713e-10
2.29365e-10
4.38637e-10
1.61263e-08
1.01233e-08
4.62213e-09
-4.05799e-14
1.8419e-07
2.35376e-07
1.86141e-07
1.66914e-09
-2.4184e-10
-3.01393e-10
9.85718e-11
1.70528e-10
1.99678e-10
1.06595e-09
1.32443e-09
1.92817e-08
7.51834e-08
2.08744e-07
3.80731e-07
6.71292e-07
4.6695e-07
-1.94534e-07
-3.08033e-07
-1.00695e-07
1.59032e-07
6.93196e-08
1.59552e-07
5.33106e-07
7.26398e-07
5.67095e-07
3.52549e-07
1.64226e-07
3.82636e-08
-9.46472e-10
-2.23759e-09
-1.12109e-09
-4.84131e-10
2.63339e-09
-4.66971e-10
-1.73594e-10
-4.08324e-11
8.16575e-13
7.15899e-12
4.36605e-12
3.62076e-12
2.34047e-30
7.96583e-10
3.98111e-11
1.09654e-10
1.75231e-10
1.64975e-10
1.70528e-10
1.70646e-10
3.62749e-10
6.43754e-09
3.35333e-08
8.9858e-08
2.24053e-07
3.319e-07
3.00356e-07
2.64871e-07
2.67662e-07
1.4339e-07
7.56266e-08
6.73475e-08
4.86457e-08
2.29863e-07
9.55966e-07
1.08888e-06
7.25865e-07
1.91976e-07
2.56792e-08
4.95e-09
1.688e-09
-3.1908e-11
-1.38378e-09
-1.74788e-09
-1.80166e-09
-1.39069e-09
1.83217e-09
-3.09125e-10
-1.13188e-10
-1.41918e-11
1.10319e-11
6.25862e-12
3.17458e-12
1.06896e-11
7.91721e-11
1.37536e-10
2.01892e-10
2.33721e-10
1.57775e-10
1.85177e-11
1.00571e-09
3.37494e-09
2.14264e-08
1.49507e-07
6.03479e-07
7.92584e-07
2.5305e-07
1.03157e-07
9.07435e-08
8.34449e-08
6.55955e-08
4.36307e-08
3.43886e-08
3.71417e-08
5.64776e-08
4.82456e-08
2.61134e-08
6.88893e-09
3.47158e-09
2.63307e-09
1.5891e-09
2.95432e-10
-8.88547e-11
-2.12656e-10
-4.60471e-10
-6.33317e-10
-4.27982e-10
-2.11962e-10
-2.88493e-11
-3.61688e-11
3.27798e-11
4.946e-11
4.07699e-11
3.44474e-11
3.27106e-07
4.59034e-07
1.07763e-05
2.90025e-05
4.06357e-06
1.60805e-05
1.90313e-06
4.19843e-08
3.38107e-08
6.15148e-08
8.24083e-08
9.34088e-08
1.28977e-07
2.12138e-07
3.31759e-07
5.52347e-07
8.11437e-07
4.99317e-07
1.82953e-07
1.62914e-07
1.96727e-07
1.5165e-07
3.72209e-08
4.27353e-10
-2.99903e-09
-3.90022e-09
2.75727e-26
-5.94293e-10
1.25505e-12
1.58507e-10
9.89989e-09
4.33613e-08
1.53988e-07
2.40938e-07
1.61393e-07
1.46073e-07
2.0363e-07
1.63113e-06
1.99922e-06
4.22239e-07
6.46553e-07
1.72397e-07
4.21853e-07
4.54002e-06
4.7456e-06
2.1435e-06
1.88364e-07
1.46498e-08
2.5859e-08
4.55529e-08
8.51517e-08
1.03394e-07
1.56968e-07
2.34502e-07
4.7788e-07
8.72654e-07
5.63131e-07
4.67677e-07
2.75158e-07
4.99971e-07
5.56984e-07
4.50187e-07
2.59776e-07
7.23006e-08
1.28494e-08
9.31838e-09
6.64583e-09
1.82512e-09
1.83875e-10
1.18515e-10
1.80283e-11
1.18407e-11
2.36688e-09
4.7906e-09
4.30442e-09
6.26091e-09
4.70434e-09
6.28529e-08
1.72471e-08
3.3671e-07
3.41918e-08
1.24438e-08
2.14398e-09
1.39757e-09
2.7516e-08
8.30062e-09
1.07495e-09
1.18647e-08
2.04945e-08
5.23368e-08
1.17348e-07
1.37283e-07
2.36042e-07
1.73319e-07
3.2197e-07
3.04496e-07
3.50292e-07
3.25773e-07
2.9848e-07
6.31121e-07
8.43195e-07
7.35292e-07
3.73752e-07
1.19185e-07
2.54362e-08
5.75137e-09
2.229e-09
3.79448e-10
7.3743e-11
1.82408e-11
1.17998e-11
9.77218e-12
1.13076e-11
1.36999e-11
1.48212e-11
1.46189e-11
2.84922e-10
5.02997e-11
3.62945e-12
7.24256e-09
1.66188e-09
5.31171e-09
4.76897e-09
1.27325e-09
6.20749e-10
4.91392e-10
1.0716e-09
3.03984e-09
1.90769e-08
2.54086e-07
5.49399e-07
3.61203e-07
2.10979e-07
1.11917e-07
1.70581e-07
3.57643e-07
3.72854e-07
2.73313e-07
2.8248e-07
5.0706e-07
6.80551e-07
5.54642e-07
3.22104e-07
1.10824e-07
1.37363e-08
3.71763e-10
7.83319e-11
2.04664e-11
1.21647e-11
1.68297e-11
8.57881e-12
1.02942e-11
1.11541e-11
1.19258e-11
1.45998e-11
1.46004e-11
1.41411e-11
1.35986e-11
7.56774e-11
2.12452e-10
1.86253e-09
6.10397e-09
6.81793e-09
6.73189e-09
4.60456e-09
1.02578e-09
1.02294e-09
1.68766e-09
1.10615e-08
5.28275e-08
1.31173e-06
8.76791e-07
1.25772e-07
9.27175e-08
8.37362e-08
6.78134e-08
5.16495e-08
3.04253e-08
1.71752e-08
2.93997e-08
3.41566e-08
2.69473e-08
1.41132e-08
4.45317e-09
5.69096e-10
1.65771e-10
9.76952e-11
7.45007e-11
8.16703e-11
5.89053e-11
4.81066e-11
9.55669e-11
8.1698e-11
5.38181e-11
3.33586e-11
2.39378e-11
2.93414e-11
4.50351e-11
5.50292e-11
1.69256e-10
1.57295e-06
4.74451e-07
2.52006e-06
7.55782e-07
1.49047e-06
7.91547e-06
1.08699e-06
6.98736e-08
5.32451e-08
7.33646e-08
6.22041e-07
5.0276e-07
1.45133e-07
1.10886e-07
1.10867e-07
1.70544e-07
4.70084e-07
5.81298e-07
4.19534e-07
5.75216e-07
6.34871e-07
5.79268e-07
3.08192e-07
9.59118e-08
1.2036e-07
1.81091e-07
1.51366e-07
3.09152e-08
3.15289e-10
1.06452e-09
7.19914e-09
1.18665e-08
1.89589e-09
4.51306e-10
3.42551e-10
3.21644e-10
2.81701e-10
2.41859e-10
1.23501e-06
1.66495e-06
1.39376e-06
5.27816e-07
1.62618e-07
7.00838e-07
1.08845e-06
1.20824e-06
1.6648e-06
8.80241e-07
4.78205e-08
2.73664e-07
6.2188e-07
3.62411e-07
1.34085e-07
1.06923e-07
1.20885e-07
2.13996e-07
4.33902e-07
4.74078e-07
3.44841e-07
5.09906e-07
6.70182e-07
5.08344e-07
1.23299e-07
1.55973e-08
2.0205e-08
6.02801e-08
5.19445e-08
1.27747e-08
1.56099e-10
2.21232e-09
1.52471e-08
2.2885e-08
1.88229e-08
8.48308e-09
1.32113e-09
5.09809e-10
4.05325e-10
2.1613e-10
9.95413e-11
4.26985e-07
3.61266e-08
3.00741e-08
5.74847e-09
1.7757e-08
3.4254e-08
3.85198e-07
1.46086e-06
2.04637e-06
1.11786e-06
1.4072e-07
1.18489e-07
1.0689e-07
1.43188e-07
1.80429e-07
2.26057e-07
1.90716e-07
1.47051e-07
1.15826e-07
1.00177e-07
1.88711e-07
1.73287e-07
9.87623e-08
2.80263e-08
3.63306e-09
3.77943e-09
2.8162e-09
1.30858e-09
9.73762e-10
5.043e-10
5.16744e-11
1.24394e-11
1.10399e-11
9.86606e-10
3.20892e-09
2.95996e-09
2.02171e-09
1.06454e-09
1.80657e-10
8.05299e-12
8.5605e-11
7.17176e-10
3.63251e-09
3.43809e-09
2.00699e-09
2.65807e-09
3.01067e-08
3.25019e-08
1.37296e-08
2.71558e-09
6.06224e-07
1.66561e-06
7.20462e-07
2.31575e-07
2.24631e-07
2.65281e-07
9.35762e-08
3.97368e-08
2.73018e-08
4.67274e-08
1.24005e-07
1.23647e-07
8.6445e-08
4.13802e-08
1.12832e-08
1.10235e-09
1.20985e-10
5.94954e-11
3.61944e-11
2.62323e-11
1.95615e-11
1.10138e-11
1.10238e-11
1.10398e-11
1.1221e-11
1.32469e-11
2.92066e-11
1.22199e-11
1.05758e-11
3.52235e-12
7.55714e-11
9.69409e-10
5.45373e-09
6.87558e-09
5.83367e-09
2.18668e-09
6.38183e-10
6.92992e-09
1.23685e-08
1.47912e-09
2.52823e-09
1.03929e-06
1.51419e-06
1.53155e-06
9.1026e-07
1.16085e-07
4.88749e-08
2.76523e-08
1.42829e-08
8.13576e-09
1.02019e-08
8.55352e-09
5.04581e-09
2.73074e-09
8.69783e-10
1.79941e-10
7.72256e-11
5.99952e-11
5.22393e-11
8.16284e-11
5.90519e-11
3.78668e-11
1.4425e-11
1.06565e-11
1.34751e-11
1.69545e-11
2.58395e-11
1.93074e-11
3.55639e-12
3.51026e-12
2.10223e-11
1.69476e-06
9.95088e-07
5.65926e-08
7.3304e-08
3.80545e-07
6.184e-07
4.46225e-07
4.15048e-07
4.62453e-08
3.85677e-08
3.88509e-08
6.41952e-06
9.05372e-06
9.23306e-06
4.61753e-06
5.58338e-07
2.40401e-07
1.84282e-07
1.84282e-07
1.74734e-07
4.17361e-07
5.4382e-07
4.67725e-07
4.56646e-07
5.0754e-07
5.12911e-07
5.11995e-07
4.54122e-07
1.17166e-07
8.58006e-08
4.1964e-07
3.70796e-07
5.46104e-08
9.62663e-10
3.87742e-10
2.93828e-10
2.56653e-10
2.35035e-10
7.07351e-07
1.69501e-06
1.64594e-06
3.82955e-07
1.53719e-08
5.25059e-09
2.13378e-07
3.09042e-06
4.17201e-06
1.32092e-06
5.15928e-08
3.97907e-08
3.88357e-08
2.46429e-06
8.4817e-06
5.68615e-06
2.52236e-06
3.02141e-06
2.56474e-06
5.86181e-07
1.84282e-07
2.22106e-07
1.82563e-07
1.2908e-07
6.72749e-08
1.59313e-08
6.78577e-10
1.91901e-10
1.47116e-10
8.36008e-11
8.83279e-11
8.7167e-11
2.48439e-07
6.58435e-07
2.38437e-07
4.76037e-09
2.45157e-09
2.33244e-09
3.29104e-10
2.43928e-10
2.16481e-08
1.48356e-06
1.35859e-07
7.93087e-08
1.08021e-08
2.51579e-09
5.9078e-09
7.5226e-06
1.25425e-05
7.35315e-06
8.50073e-07
5.34395e-08
6.75076e-08
8.4567e-08
3.8907e-07
3.97581e-06
3.57237e-06
3.32064e-06
3.27889e-06
1.69643e-06
1.63155e-07
8.60053e-08
2.83835e-08
9.7557e-09
3.90247e-09
1.8379e-09
6.42964e-10
1.36815e-10
1.49547e-10
1.49011e-10
1.61499e-10
8.48629e-11
2.15715e-11
1.54161e-11
1.64758e-08
4.2935e-08
4.30263e-08
4.29776e-08
1.6929e-08
3.15023e-09
1.49884e-08
1.35062e-07