/*--------------------------------*- C++ -*----------------------------------*\
| =========                 |                                                 |
| \\      /  F ield         | OpenFOAM: The Open Source CFD Toolbox           |
|  \\    /   O peration     | Version:  2112                                  |
|   \\  /    A nd           | Website:  www.openfoam.com                      |
|    \\/     M anipulation  |                                                 |
\*---------------------------------------------------------------------------*/
FoamFile
{
    version     2.0;
    format      ascii;
    arch        "LSB;label=32;scalar=64";
    class       surfaceScalarField;
    location    "1";
    object      alphaPhi0.water;
}
// * * * * * * * * * * * * * * * * * * * * * * * * * * * * * * * * * * * * * //

dimensions      [0 3 -1 0 0 0 0];

oriented        oriented;

internalField   nonuniform List<scalar> 
76920
(
3.82599e-06
-3.8449e-06
-7.81375e-08
7.67864e-08
3.82533e-06
-7.25685e-08
7.30085e-08
3.82352e-06
-6.81248e-08
6.89984e-08
3.78746e-06
-6.39096e-08
6.4634e-08
3.75263e-06
-6.18788e-08
6.18927e-08
3.75324e-06
-6.0814e-08
5.86256e-08
3.72227e-06
-6.12443e-08
5.70095e-08
3.72711e-06
-6.02722e-08
5.32459e-08
3.73516e-06
-6.15699e-08
5.20261e-08
3.69205e-06
-6.0857e-08
4.99659e-08
3.68388e-06
-6.00655e-08
4.9441e-08
3.65703e-06
-5.85856e-08
4.94528e-08
3.68002e-06
-5.70743e-08
5.00975e-08
3.70016e-06
-5.69816e-08
4.8466e-08
3.70511e-06
-5.71755e-08
5.04527e-08
3.72688e-06
-5.80557e-08
5.05111e-08
3.6939e-06
-5.82752e-08
5.17049e-08
3.71204e-06
-5.71093e-08
5.50821e-08
3.81435e-06
-5.73843e-08
5.97635e-08
3.82556e-06
-5.8744e-08
6.41457e-08
3.83305e-06
-5.74376e-08
6.69919e-08
3.89011e-06
-5.84301e-08
7.14712e-08
3.8927e-06
-5.97633e-08
7.46063e-08
3.87844e-06
-6.24127e-08
7.66741e-08
3.86708e-06
-6.66705e-08
7.80267e-08
3.85992e-06
-7.17955e-08
7.89605e-08
3.85725e-06
-7.71651e-08
7.98353e-08
3.85846e-06
-8.18723e-08
8.06612e-08
3.86263e-06
-8.57155e-08
8.15422e-08
3.86843e-06
-8.8413e-08
8.26131e-08
3.87376e-06
-8.93201e-08
8.39936e-08
3.87736e-06
-8.91837e-08
8.5585e-08
3.87872e-06
-8.84566e-08
8.70987e-08
3.87863e-06
-8.81688e-08
8.82522e-08
3.87828e-06
-8.85721e-08
8.8925e-08
3.87805e-06
-8.90764e-08
8.93062e-08
3.87793e-06
-8.91893e-08
8.93091e-08
3.87792e-06
-8.82966e-08
8.83094e-08
3.86108e-06
-8.62255e-08
8.50096e-08
-8.25862e-08
8.06329e-08
5.31578e-06
-5.31231e-06
-3.37026e-07
2.55793e-07
5.31461e-06
-3.31e-07
2.596e-07
5.30835e-06
-3.25179e-07
2.62989e-07
5.30136e-06
-3.21415e-07
2.65399e-07
5.29391e-06
-3.20729e-07
2.6601e-07
5.29095e-06
-3.22901e-07
2.6533e-07
5.29212e-06
-3.26471e-07
2.6377e-07
5.2993e-06
-3.29942e-07
2.6249e-07
5.30812e-06
-3.31964e-07
2.61857e-07
5.31626e-06
-3.31637e-07
2.62647e-07
5.32048e-06
-3.28787e-07
2.6479e-07
5.31858e-06
-3.243e-07
2.67611e-07
5.31105e-06
-3.19866e-07
2.70047e-07
5.30066e-06
-3.1756e-07
2.71232e-07
5.29e-06
-3.17858e-07
2.70792e-07
5.2838e-06
-3.20789e-07
2.69217e-07
5.28357e-06
-3.24863e-07
2.6709e-07
5.29017e-06
-3.29089e-07
2.65103e-07
5.2655e-06
-3.31729e-07
2.63411e-07
5.27632e-06
-3.32244e-07
2.6293e-07
5.32034e-06
-3.32431e-07
2.6552e-07
5.32392e-06
-3.29211e-07
2.66923e-07
5.32267e-06
-3.26293e-07
2.67782e-07
5.31862e-06
-3.25598e-07
2.67232e-07
5.3143e-06
-3.2744e-07
2.65095e-07
5.31279e-06
-3.31968e-07
2.61677e-07
5.3154e-06
-3.3743e-07
2.57658e-07
5.32231e-06
-3.42719e-07
2.53935e-07
5.33124e-06
-3.4595e-07
2.51303e-07
5.33902e-06
-3.46519e-07
2.50329e-07
5.34283e-06
-3.44197e-07
2.51062e-07
5.34068e-06
-3.39895e-07
2.52861e-07
5.33295e-06
-3.35382e-07
2.54659e-07
5.32199e-06
-3.32805e-07
2.55592e-07
5.31065e-06
-3.32646e-07
2.55416e-07
5.30243e-06
-3.35089e-07
2.54238e-07
5.29907e-06
-3.38448e-07
2.52619e-07
5.30105e-06
-3.41667e-07
2.51393e-07
5.30637e-06
-3.42837e-07
2.51291e-07
-3.41332e-07
2.52797e-07
6.61163e-06
-6.60743e-06
-6.54827e-07
3.136e-07
6.60894e-06
-6.47478e-07
3.19163e-07
6.59977e-06
-6.40044e-07
3.24033e-07
6.58779e-06
-6.35983e-07
3.26554e-07
6.5771e-06
-6.36267e-07
3.26229e-07
6.57159e-06
-6.41174e-07
3.23777e-07
6.57287e-06
-6.48095e-07
3.20347e-07
6.58062e-06
-6.54938e-07
3.17249e-07
6.59184e-06
-6.58908e-07
3.1572e-07
6.6027e-06
-6.59223e-07
3.1672e-07
6.60877e-06
-6.55164e-07
3.20315e-07
6.60776e-06
-6.4857e-07
3.25279e-07
6.60013e-06
-6.41729e-07
3.29493e-07
6.58939e-06
-6.3813e-07
3.31301e-07
6.58005e-06
-6.38757e-07
3.30242e-07
6.57608e-06
-6.43847e-07
3.27023e-07
6.57924e-06
-6.50808e-07
3.22792e-07
6.58902e-06
-6.5764e-07
3.1877e-07
6.60271e-06
-6.61614e-07
3.16194e-07
6.61658e-06
-6.62042e-07
3.15925e-07
6.62428e-06
-6.5813e-07
3.17994e-07
6.62488e-06
-6.51467e-07
3.21655e-07
6.61858e-06
-6.44615e-07
3.24628e-07
6.60873e-06
-6.41038e-07
3.25286e-07
6.59963e-06
-6.41606e-07
3.23262e-07
6.59519e-06
-6.46707e-07
3.19179e-07
6.59724e-06
-6.53694e-07
3.14216e-07
6.60525e-06
-6.60428e-07
3.09696e-07
6.61644e-06
-6.64079e-07
3.06939e-07
6.6268e-06
-6.6385e-07
3.06975e-07
6.63174e-06
-6.59045e-07
3.09906e-07
6.62905e-06
-6.51649e-07
3.14445e-07
6.61925e-06
-6.44016e-07
3.18438e-07
6.60586e-06
-6.39655e-07
3.2024e-07
6.59327e-06
-6.39492e-07
3.19433e-07
6.58555e-06
-6.43976e-07
3.16609e-07
6.58455e-06
-6.50402e-07
3.12953e-07
6.58985e-06
-6.56708e-07
3.09741e-07
6.59874e-06
-6.60033e-07
3.08305e-07
-6.59608e-07
3.09594e-07
7.89731e-06
-7.89129e-06
-9.81609e-07
3.20764e-07
7.89378e-06
-9.72378e-07
3.28432e-07
7.88246e-06
-9.63609e-07
3.34881e-07
7.86761e-06
-9.58698e-07
3.37567e-07
7.85479e-06
-9.59787e-07
3.36344e-07
7.848e-06
-9.66665e-07
3.32283e-07
7.85022e-06
-9.7713e-07
3.26817e-07
7.86033e-06
-9.86709e-07
3.21655e-07
7.87501e-06
-9.92161e-07
3.18573e-07
7.88858e-06
-9.91868e-07
3.19078e-07
7.8959e-06
-9.86373e-07
3.2389e-07
7.89336e-06
-9.77223e-07
3.31194e-07
7.88282e-06
-9.6846e-07
3.37264e-07
7.86863e-06
-9.63502e-07
3.3956e-07
7.85645e-06
-9.64509e-07
3.37933e-07
7.85042e-06
-9.71274e-07
3.33459e-07
7.85364e-06
-9.81594e-07
3.27567e-07
7.86503e-06
-9.90982e-07
3.21946e-07
7.88124e-06
-9.96185e-07
3.18361e-07
7.89649e-06
-9.95592e-07
3.18306e-07
7.90555e-06
-9.89726e-07
3.22528e-07
7.90482e-06
-9.80023e-07
3.29285e-07
7.89594e-06
-9.70543e-07
3.34808e-07
7.88305e-06
-9.64726e-07
3.36581e-07
7.87173e-06
-9.64751e-07
3.34462e-07
7.86597e-06
-9.70463e-07
3.29513e-07
7.86877e-06
-9.79705e-07
3.23215e-07
7.87905e-06
-9.88029e-07
3.1732e-07
7.8935e-06
-9.92196e-07
3.13671e-07
7.90646e-06
-9.90603e-07
3.1379e-07
7.91287e-06
-9.83824e-07
3.18368e-07
7.90909e-06
-9.73442e-07
3.25574e-07
7.89698e-06
-9.63556e-07
3.31646e-07
7.88087e-06
-9.57601e-07
3.34054e-07
7.86649e-06
-9.57742e-07
3.32636e-07
7.85788e-06
-9.638e-07
3.28438e-07
7.85817e-06
-9.73607e-07
3.22915e-07
7.86637e-06
-9.82699e-07
3.1779e-07
7.87927e-06
-9.87801e-07
3.14868e-07
-9.87258e-07
3.15635e-07
9.1908e-06
-9.18381e-06
3.02013e-07
-1.2906e-06
9.1865e-06
3.1145e-07
-1.27953e-06
9.17264e-06
3.19045e-07
-1.26879e-06
9.15476e-06
3.21808e-07
-1.26262e-06
9.13914e-06
3.19862e-07
-1.26403e-06
9.13097e-06
3.14555e-07
-1.27305e-06
9.13449e-06
3.07613e-07
-1.28826e-06
9.1474e-06
3.01014e-07
-1.30064e-06
9.16466e-06
2.96857e-07
-1.30628e-06
9.18052e-06
2.97258e-07
-1.30498e-06
9.18812e-06
3.03392e-07
-1.29736e-06
9.18432e-06
3.12633e-07
-1.28606e-06
9.17089e-06
3.20019e-07
-1.27505e-06
9.15341e-06
3.22556e-07
-1.26859e-06
9.13827e-06
3.20361e-07
-1.26973e-06
9.13075e-06
3.14783e-07
-1.27853e-06
9.13517e-06
3.07547e-07
-1.29357e-06
9.14925e-06
3.0062e-07
-1.30568e-06
9.16788e-06
2.96102e-07
-1.31092e-06
9.18522e-06
2.96123e-07
-1.30906e-06
9.19432e-06
3.01876e-07
-1.30071e-06
9.19197e-06
3.10766e-07
-1.28844e-06
9.1798e-06
3.17854e-07
-1.27623e-06
9.16331e-06
3.20145e-07
-1.26838e-06
9.14878e-06
3.1775e-07
-1.26797e-06
9.14143e-06
3.12027e-07
-1.27514e-06
9.14555e-06
3.04732e-07
-1.28856e-06
9.15888e-06
2.97854e-07
-1.29921e-06
9.17637e-06
2.93523e-07
-1.30321e-06
9.19227e-06
2.93858e-07
-1.30035e-06
9.19969e-06
3.00014e-07
-1.29126e-06
9.1955e-06
3.09356e-07
-1.27861e-06
9.18144e-06
3.16918e-07
-1.26641e-06
9.16307e-06
3.19685e-07
-1.25892e-06
9.14675e-06
3.17769e-07
-1.25919e-06
9.13772e-06
3.12514e-07
-1.26729e-06
9.1403e-06
3.05648e-07
-1.28183e-06
9.15228e-06
2.99152e-07
-1.29383e-06
9.16869e-06
2.95135e-07
-1.29935e-06
2.95701e-07
-1.29808e-06
3.90218e-06
-3.90017e-06
-1.89427e-07
2.63859e-07
3.90028e-06
-1.89015e-07
2.63925e-07
3.89476e-06
-1.8881e-07
2.63634e-07
3.88595e-06
-1.89815e-07
2.62388e-07
3.87902e-06
-1.91516e-07
2.6062e-07
3.87297e-06
-1.93555e-07
2.5796e-07
3.87162e-06
-1.96071e-07
2.54688e-07
3.8731e-06
-1.99319e-07
2.5108e-07
3.8785e-06
-2.02339e-07
2.48732e-07
3.88498e-06
-2.04614e-07
2.48099e-07
3.89001e-06
-2.05215e-07
2.49401e-07
3.89227e-06
-2.04768e-07
2.51961e-07
3.89179e-06
-2.03856e-07
2.54667e-07
3.88705e-06
-2.03496e-07
2.56473e-07
3.88385e-06
-2.02899e-07
2.57021e-07
3.87949e-06
-2.02051e-07
2.56685e-07
3.87682e-06
-2.01535e-07
2.55679e-07
3.87854e-06
-2.01514e-07
2.55129e-07
3.88399e-06
-2.01288e-07
2.55877e-07
3.89025e-06
-2.00342e-07
2.57939e-07
3.89457e-06
-1.97979e-07
2.61258e-07
3.89585e-06
-1.94778e-07
2.65281e-07
3.89319e-06
-1.91573e-07
2.68842e-07
3.88829e-06
-1.89512e-07
2.71082e-07
3.88324e-06
-1.88591e-07
2.71673e-07
3.87947e-06
-1.88084e-07
2.70807e-07
3.87875e-06
-1.88427e-07
2.68988e-07
3.88178e-06
-1.89259e-07
2.66889e-07
3.8875e-06
-1.8986e-07
2.65682e-07
3.89391e-06
-1.89809e-07
2.66009e-07
3.89829e-06
-1.8835e-07
2.67967e-07
3.89912e-06
-1.86223e-07
2.70976e-07
3.89631e-06
-1.84036e-07
2.7395e-07
3.89161e-06
-1.82936e-07
2.75884e-07
3.88723e-06
-1.83024e-07
2.76332e-07
3.88459e-06
-1.83412e-07
2.75352e-07
3.88515e-06
-1.84448e-07
2.73201e-07
3.88939e-06
-1.8615e-07
2.70219e-07
3.89514e-06
-1.88005e-07
2.67263e-07
-1.89368e-07
2.64971e-07
5.28443e-06
-5.27956e-06
-4.24213e-07
4.85715e-07
5.28247e-06
-4.19593e-07
4.92133e-07
5.27411e-06
-4.15043e-07
4.97581e-07
5.26273e-06
-4.13028e-07
4.99999e-07
5.25205e-06
-4.13785e-07
4.9896e-07
5.24626e-06
-4.1749e-07
4.9505e-07
5.2472e-06
-4.2288e-07
4.89638e-07
5.25484e-06
-4.28989e-07
4.84517e-07
5.26621e-06
-4.33388e-07
4.81538e-07
5.27703e-06
-4.34815e-07
4.8203e-07
5.28306e-06
-4.32648e-07
4.86191e-07
5.28155e-06
-4.27966e-07
4.92314e-07
5.27316e-06
-4.23043e-07
4.97628e-07
5.26115e-06
-4.20313e-07
5.00058e-07
5.24988e-06
-4.20038e-07
4.99196e-07
5.24394e-06
-4.22538e-07
4.95641e-07
5.24544e-06
-4.26636e-07
4.9069e-07
5.25438e-06
-4.31387e-07
4.86042e-07
5.26743e-06
-4.3437e-07
4.83439e-07
5.28012e-06
-4.34339e-07
4.84239e-07
5.28963e-06
-4.30574e-07
4.88605e-07
5.29173e-06
-4.2457e-07
4.94611e-07
5.28711e-06
-4.18641e-07
4.99474e-07
5.27886e-06
-4.15215e-07
5.01181e-07
5.27058e-06
-4.14558e-07
4.99343e-07
5.26655e-06
-4.16939e-07
4.94562e-07
5.26849e-06
-4.20991e-07
4.88277e-07
5.27649e-06
-4.25706e-07
4.82385e-07
5.28785e-06
-4.28691e-07
4.78769e-07
5.29836e-06
-4.28773e-07
4.78788e-07
5.3038e-06
-4.25371e-07
4.82642e-07
5.30145e-06
-4.19622e-07
4.88608e-07
5.29212e-06
-4.13897e-07
4.93855e-07
5.27914e-06
-4.10666e-07
4.96303e-07
5.26631e-06
-4.10266e-07
4.9548e-07
5.25807e-06
-4.12873e-07
4.91939e-07
5.25642e-06
-4.17175e-07
4.87001e-07
5.26149e-06
-4.22267e-07
4.82439e-07
5.27056e-06
-4.25818e-07
4.80034e-07
-4.26661e-07
4.81087e-07
6.57595e-06
-6.56985e-06
-7.06409e-07
5.897e-07
6.57233e-06
-6.98656e-07
6.0184e-07
6.5605e-06
-6.90894e-07
6.1172e-07
6.54525e-06
-6.86917e-07
6.15695e-07
6.53175e-06
-6.87601e-07
6.13542e-07
6.52459e-06
-6.93319e-07
6.06765e-07
6.5261e-06
-7.01599e-07
5.9756e-07
6.53584e-06
-7.1024e-07
5.88756e-07
6.55054e-06
-7.1587e-07
5.83506e-07
6.56498e-06
-7.17061e-07
5.84531e-07
6.57261e-06
-7.12669e-07
5.92699e-07
6.5704e-06
-7.04972e-07
6.04492e-07
6.55987e-06
-6.97068e-07
6.14046e-07
6.5459e-06
-6.92768e-07
6.17727e-07
6.53378e-06
-6.92975e-07
6.15304e-07
6.52812e-06
-6.98102e-07
6.08241e-07
6.53129e-06
-7.05707e-07
5.98693e-07
6.54283e-06
-7.13609e-07
5.89452e-07
6.55944e-06
-7.18441e-07
5.83657e-07
6.57577e-06
-7.18782e-07
5.84033e-07
6.5852e-06
-7.13479e-07
5.91475e-07
6.58463e-06
-7.04865e-07
6.02517e-07
6.57542e-06
-6.96106e-07
6.11301e-07
6.56232e-06
-6.91035e-07
6.14207e-07
6.55054e-06
-6.90553e-07
6.11035e-07
6.54457e-06
-6.95074e-07
6.03283e-07
6.54675e-06
-7.02134e-07
5.93181e-07
6.55668e-06
-7.09534e-07
5.8359e-07
6.57114e-06
-7.13915e-07
5.77706e-07
6.58494e-06
-7.13878e-07
5.78279e-07
6.5916e-06
-7.08312e-07
5.86186e-07
6.58808e-06
-6.99541e-07
5.97889e-07
6.57584e-06
-6.90702e-07
6.07483e-07
6.55974e-06
-6.8564e-07
6.11315e-07
6.54504e-06
-6.85273e-07
6.09142e-07
6.53635e-06
-6.90012e-07
6.02439e-07
6.53614e-06
-6.97397e-07
5.93381e-07
6.5441e-06
-7.0527e-07
5.84791e-07
6.55705e-06
-7.10288e-07
5.79823e-07
-7.11045e-07
5.81182e-07
7.85849e-06
-7.85043e-06
-1.00773e-06
6.14022e-07
7.85378e-06
-9.97785e-07
6.32266e-07
7.83956e-06
-9.88264e-07
6.46479e-07
7.82143e-06
-9.82833e-07
6.51612e-07
7.8057e-06
-9.83635e-07
6.48107e-07
7.7971e-06
-9.90639e-07
6.38206e-07
7.79926e-06
-1.0017e-06
6.24753e-07
7.81144e-06
-1.01229e-06
6.11517e-07
7.82996e-06
-1.01885e-06
6.03037e-07
7.84754e-06
-1.01924e-06
6.03684e-07
7.85656e-06
-1.0136e-06
6.15793e-07
7.85268e-06
-1.0036e-06
6.33716e-07
7.83915e-06
-9.93914e-07
6.47631e-07
7.82169e-06
-9.88232e-07
6.52488e-07
7.80666e-06
-9.88736e-07
6.48718e-07
7.79889e-06
-9.9542e-07
6.38548e-07
7.80208e-06
-1.00613e-06
6.24804e-07
7.8155e-06
-1.01632e-06
6.11234e-07
7.83541e-06
-1.02237e-06
6.02375e-07
7.85448e-06
-1.02215e-06
6.02605e-07
7.86501e-06
-1.01577e-06
6.14287e-07
7.86256e-06
-1.00492e-06
6.31792e-07
7.85028e-06
-9.94306e-07
6.45279e-07
7.83376e-06
-9.87637e-07
6.49707e-07
7.81925e-06
-9.8711e-07
6.45523e-07
7.81147e-06
-9.92757e-07
6.3498e-07
7.81406e-06
-1.00246e-06
6.20951e-07
7.82634e-06
-1.01173e-06
6.07239e-07
7.84465e-06
-1.01698e-06
5.98423e-07
7.86178e-06
-1.01611e-06
5.98893e-07
7.87011e-06
-1.00926e-06
6.10974e-07
7.8653e-06
-9.98143e-07
6.28992e-07
7.8506e-06
-9.87455e-07
6.431e-07
7.83168e-06
-9.80909e-07
6.48237e-07
7.81491e-06
-9.80684e-07
6.44816e-07
7.80507e-06
-9.86786e-07
6.35055e-07
7.80589e-06
-9.97091e-07
6.21793e-07
7.81672e-06
-1.00711e-06
6.08797e-07
7.83397e-06
-1.01328e-06
6.00607e-07
-1.01344e-06
6.0158e-07
9.14611e-06
-9.13729e-06
5.86559e-07
-1.30109e-06
9.14054e-06
6.09185e-07
-1.28995e-06
9.12388e-06
6.26242e-07
-1.2788e-06
9.10296e-06
6.31912e-07
-1.27202e-06
9.08469e-06
6.27347e-07
-1.27285e-06
9.07497e-06
6.15263e-07
-1.28162e-06
9.07854e-06
5.98942e-07
-1.29659e-06
9.09355e-06
5.82701e-07
-1.30899e-06
9.11463e-06
5.71919e-07
-1.31499e-06
9.13452e-06
5.72277e-07
-1.31415e-06
9.14379e-06
5.87388e-07
-1.30686e-06
9.13857e-06
6.09773e-07
-1.29553e-06
9.12222e-06
6.26602e-07
-1.28414e-06
9.10161e-06
6.32043e-07
-1.27711e-06
9.08373e-06
6.27239e-07
-1.27773e-06
9.07456e-06
6.14897e-07
-1.28637e-06
9.07893e-06
5.9829e-07
-1.30124e-06
9.09497e-06
5.81727e-07
-1.31347e-06
9.11724e-06
5.70591e-07
-1.31913e-06
9.1384e-06
5.7059e-07
-1.31778e-06
9.14894e-06
5.85365e-07
-1.3098e-06
9.14492e-06
6.0745e-07
-1.29759e-06
9.1296e-06
6.24016e-07
-1.28515e-06
9.10979e-06
6.29242e-07
-1.27692e-06
9.09237e-06
6.24277e-07
-1.27622e-06
9.08327e-06
6.11849e-07
-1.28348e-06
9.08728e-06
5.95253e-07
-1.297e-06
9.10259e-06
5.78828e-07
-1.30801e-06
9.12383e-06
5.67971e-07
-1.31267e-06
9.14374e-06
5.68377e-07
-1.31054e-06
9.15289e-06
5.83652e-07
-1.30204e-06
9.1474e-06
6.06296e-07
-1.2896e-06
9.13061e-06
6.23463e-07
-1.27721e-06
9.10937e-06
6.2931e-07
-1.26929e-06
9.09061e-06
6.24963e-07
-1.26912e-06
9.08028e-06
6.1312e-07
-1.27705e-06
9.08316e-06
5.97051e-07
-1.29137e-06
9.09748e-06
5.81073e-07
-1.30336e-06
9.11794e-06
5.70561e-07
-1.30916e-06
5.7119e-07
-1.30829e-06
3.88545e-06
-3.88023e-06
-2.2008e-07
4.78715e-07
3.8828e-06
-2.16873e-07
4.83451e-07
3.8725e-06
-2.13782e-07
4.8772e-07
3.85832e-06
-2.12637e-07
4.89204e-07
3.84553e-06
-2.13733e-07
4.87144e-07
3.83746e-06
-2.16132e-07
4.82163e-07
3.83616e-06
-2.19703e-07
4.75687e-07
3.84184e-06
-2.23969e-07
4.6937e-07
3.8528e-06
-2.27459e-07
4.65232e-07
3.8649e-06
-2.2887e-07
4.6487e-07
3.87283e-06
-2.27202e-07
4.6867e-07
3.87345e-06
-2.23768e-07
4.75109e-07
3.86697e-06
-2.20194e-07
4.81337e-07
3.85695e-06
-2.18333e-07
4.84832e-07
3.84782e-06
-2.18521e-07
4.84671e-07
3.84275e-06
-2.198e-07
4.81551e-07
3.84358e-06
-2.22084e-07
4.76937e-07
3.85112e-06
-2.24929e-07
4.72522e-07
3.86375e-06
-2.26953e-07
4.70194e-07
3.87728e-06
-2.26987e-07
4.71395e-07
3.88621e-06
-2.24102e-07
4.76428e-07
3.88738e-06
-2.19643e-07
4.83757e-07
3.88099e-06
-2.15288e-07
4.90518e-07
3.87075e-06
-2.1291e-07
4.94234e-07
3.86125e-06
-2.12834e-07
4.94006e-07
3.8556e-06
-2.14022e-07
4.90478e-07
3.85575e-06
-2.16311e-07
4.85149e-07
3.86221e-06
-2.19293e-07
4.79722e-07
3.87321e-06
-2.21576e-07
4.76257e-07
3.88477e-06
-2.21934e-07
4.76377e-07
3.89166e-06
-2.19428e-07
4.80511e-07
3.89086e-06
-2.15392e-07
4.87165e-07
3.88277e-06
-2.11464e-07
4.93501e-07
3.87114e-06
-2.09497e-07
4.97016e-07
3.8605e-06
-2.098e-07
4.96767e-07
3.85398e-06
-2.11347e-07
4.93217e-07
3.85351e-06
-2.14042e-07
4.87721e-07
3.85944e-06
-2.17555e-07
4.81836e-07
3.86977e-06
-2.2055e-07
4.77484e-07
-2.21742e-07
4.76261e-07
5.25279e-06
-5.24472e-06
-4.74408e-07
7.31975e-07
5.24837e-06
-4.66413e-07
7.46094e-07
5.23384e-06
-4.58892e-07
7.57224e-07
5.21533e-06
-4.55349e-07
7.61221e-07
5.1989e-06
-4.56194e-07
7.57845e-07
5.19026e-06
-4.61278e-07
7.48843e-07
5.19204e-06
-4.68811e-07
7.36966e-07
5.20408e-06
-4.77308e-07
7.25815e-07
5.22237e-06
-4.83492e-07
7.19285e-07
5.24008e-06
-4.85129e-07
7.20572e-07
5.24941e-06
-4.80878e-07
7.30533e-07
5.24603e-06
-4.72706e-07
7.44635e-07
5.23234e-06
-4.64808e-07
7.55928e-07
5.21457e-06
-4.60727e-07
7.60231e-07
5.19887e-06
-4.609e-07
7.57271e-07
5.19114e-06
-4.65198e-07
7.48769e-07
5.19413e-06
-4.71821e-07
7.37437e-07
5.20773e-06
-4.79296e-07
7.2681e-07
5.22787e-06
-4.84385e-07
7.20723e-07
5.24772e-06
-4.8492e-07
7.22329e-07
5.25938e-06
-4.79624e-07
7.32463e-07
5.25834e-06
-4.70531e-07
7.46538e-07
5.24681e-06
-4.61863e-07
7.57579e-07
5.23081e-06
-4.57154e-07
7.61421e-07
5.21632e-06
-4.56826e-07
7.57831e-07
5.20901e-06
-4.60723e-07
7.48574e-07
5.21159e-06
-4.67047e-07
7.36432e-07
5.22397e-06
-4.74341e-07
7.25047e-07
5.2422e-06
-4.79382e-07
7.18344e-07
5.25952e-06
-4.79987e-07
7.19527e-07
5.26814e-06
-4.74855e-07
7.29449e-07
5.26376e-06
-4.65972e-07
7.43565e-07
5.24877e-06
-4.57538e-07
7.54915e-07
5.22935e-06
-4.53079e-07
7.59305e-07
5.2116e-06
-4.53022e-07
7.56452e-07
5.20137e-06
-4.57219e-07
7.48047e-07
5.20145e-06
-4.63912e-07
7.36784e-07
5.21181e-06
-4.71689e-07
7.26211e-07
5.22848e-06
-4.77355e-07
7.20169e-07
-4.78709e-07
7.21815e-07
6.53979e-06
-6.52972e-06
-7.57184e-07
8.6241e-07
6.53314e-06
-7.46227e-07
8.88302e-07
6.51423e-06
-7.35648e-07
9.07389e-07
6.49132e-06
-7.30272e-07
9.13528e-07
6.47172e-06
-7.30832e-07
9.07773e-07
6.46146e-06
-7.3745e-07
8.93197e-07
6.4639e-06
-7.47501e-07
8.73811e-07
6.47886e-06
-7.58503e-07
8.54989e-07
6.5021e-06
-7.66439e-07
8.43212e-07
6.52535e-06
-7.6872e-07
8.44879e-07
6.53664e-06
-7.62815e-07
8.63343e-07
6.53117e-06
-7.5183e-07
8.89081e-07
6.51342e-06
-7.41082e-07
9.08071e-07
6.49169e-06
-7.35419e-07
9.14149e-07
6.47334e-06
-7.35592e-07
9.08347e-07
6.46442e-06
-7.41737e-07
8.93706e-07
6.46831e-06
-7.51231e-07
8.74208e-07
6.48484e-06
-7.61585e-07
8.55204e-07
6.50974e-06
-7.68792e-07
8.43164e-07
6.53464e-06
-7.70278e-07
8.4449e-07
6.54748e-06
-7.6354e-07
8.62552e-07
6.54335e-06
-7.51711e-07
8.87827e-07
6.52662e-06
-7.40136e-07
9.063e-07
6.50551e-06
-7.33671e-07
9.11839e-07
6.48728e-06
-7.3308e-07
9.05512e-07
6.47795e-06
-7.38512e-07
8.90403e-07
6.4809e-06
-7.47364e-07
8.70546e-07
6.49599e-06
-7.57182e-07
8.5134e-07
6.51901e-06
-7.63981e-07
8.39288e-07
6.5417e-06
-7.65199e-07
8.40798e-07
6.55213e-06
-7.58322e-07
8.59222e-07
6.54551e-06
-7.46472e-07
8.85012e-07
6.52629e-06
-7.34978e-07
9.04142e-07
6.50276e-06
-7.28686e-07
9.10451e-07
6.48227e-06
-7.28354e-07
9.0496e-07
6.47091e-06
-7.34127e-07
8.90706e-07
6.47212e-06
-7.43414e-07
8.71671e-07
6.4858e-06
-7.53777e-07
8.53203e-07
6.50775e-06
-7.61238e-07
8.41761e-07
-7.63219e-07
8.43719e-07
7.81783e-06
-7.80591e-06
-1.04968e-06
8.94596e-07
7.80904e-06
-1.03807e-06
9.329e-07
7.7871e-06
-1.02681e-06
9.59575e-07
7.76132e-06
-1.02027e-06
9.67396e-07
7.73966e-06
-1.02052e-06
9.5945e-07
7.72805e-06
-1.02742e-06
9.39783e-07
7.73106e-06
-1.03885e-06
9.13092e-07
7.74842e-06
-1.05048e-06
8.86128e-07
7.77588e-06
-1.05867e-06
8.67812e-07
7.80325e-06
-1.06055e-06
8.68141e-07
7.8159e-06
-1.05477e-06
8.95091e-07
7.80777e-06
-1.04314e-06
9.33162e-07
7.78644e-06
-1.03177e-06
9.5965e-07
7.76126e-06
-1.02506e-06
9.67312e-07
7.74027e-06
-1.02511e-06
9.59218e-07
7.72946e-06
-1.03177e-06
9.39396e-07
7.73344e-06
-1.04293e-06
9.12523e-07
7.75194e-06
-1.0542e-06
8.85339e-07
7.78067e-06
-1.06191e-06
8.66766e-07
7.80936e-06
-1.06318e-06
8.66817e-07
7.82329e-06
-1.05668e-06
8.93499e-07
7.81629e-06
-1.04422e-06
9.31296e-07
7.79588e-06
-1.03193e-06
9.5749e-07
7.77131e-06
-1.02426e-06
9.6486e-07
7.75055e-06
-1.0233e-06
9.56499e-07
7.73952e-06
-1.02897e-06
9.36465e-07
7.74283e-06
-1.0392e-06
9.09472e-07
7.76024e-06
-1.04966e-06
8.82299e-07
7.78754e-06
-1.05674e-06
8.6389e-07
7.81454e-06
-1.05756e-06
8.64253e-07
7.82663e-06
-1.0508e-06
8.91357e-07
7.81775e-06
-1.03826e-06
9.29664e-07
7.79547e-06
-1.02606e-06
9.56464e-07
7.76913e-06
-1.01862e-06
9.64516e-07
7.74674e-06
-1.01802e-06
9.56872e-07
7.73427e-06
-1.02415e-06
9.37549e-07
7.73636e-06
-1.03493e-06
9.11222e-07
7.75279e-06
-1.04604e-06
8.8463e-07
7.77936e-06
-1.05388e-06
8.66681e-07
-1.05555e-06
8.67351e-07
9.09737e-06
-9.08553e-06
8.56151e-07
-1.33111e-06
9.08733e-06
9.01968e-07
-1.32082e-06
9.06353e-06
9.32965e-07
-1.30973e-06
9.036e-06
9.4177e-07
-1.30261e-06
9.0128e-06
9.32899e-07
-1.30286e-06
9.00074e-06
9.10656e-07
-1.31075e-06
9.00523e-06
8.7992e-07
-1.32432e-06
9.02492e-06
8.48053e-07
-1.33552e-06
9.0542e-06
8.25295e-07
-1.34133e-06
9.08328e-06
8.241e-07
-1.34146e-06
9.09543e-06
8.56148e-07
-1.33568e-06
9.08565e-06
9.01726e-07
-1.32531e-06
9.06207e-06
9.32517e-07
-1.31411e-06
9.03479e-06
9.41128e-07
-1.30687e-06
9.01191e-06
9.32061e-07
-1.30705e-06
9.00034e-06
9.09606e-07
-1.31491e-06
9.00555e-06
8.78636e-07
-1.32849e-06
9.02616e-06
8.46504e-07
-1.33959e-06
9.05649e-06
8.23465e-07
-1.34512e-06
9.08669e-06
8.22002e-07
-1.3448e-06
9.09992e-06
8.53845e-07
-1.33839e-06
9.09111e-06
8.99257e-07
-1.32721e-06
9.06832e-06
9.29907e-07
-1.31504e-06
9.0416e-06
9.38416e-07
-1.30671e-06
9.01898e-06
9.29301e-07
-1.3057e-06
9.00733e-06
9.06869e-07
-1.31234e-06
9.01211e-06
8.76017e-07
-1.32473e-06
9.03198e-06
8.44119e-07
-1.33482e-06
9.06135e-06
8.2144e-07
-1.33958e-06
9.09043e-06
8.20443e-07
-1.33871e-06
9.10246e-06
8.5281e-07
-1.33199e-06
9.09246e-06
8.98784e-07
-1.32074e-06
9.06854e-06
9.30041e-07
-1.30872e-06
9.04077e-06
9.39183e-07
-1.30073e-06
9.01722e-06
9.30696e-07
-1.3002e-06
9.00473e-06
9.08853e-07
-1.3074e-06
9.00875e-06
8.78518e-07
-1.32042e-06
9.02797e-06
8.47042e-07
-1.33123e-06
9.05682e-06
8.24659e-07
-1.33683e-06
8.23808e-07
-1.33687e-06
3.87606e-06
-3.86278e-06
-2.46577e-07
7.1201e-07
3.87208e-06
-2.39156e-07
7.26589e-07
3.85289e-06
-2.32421e-07
7.39326e-07
3.8271e-06
-2.29402e-07
7.44393e-07
3.8037e-06
-2.3042e-07
7.40964e-07
3.78929e-06
-2.34319e-07
7.30901e-07
3.78825e-06
-2.40545e-07
7.17269e-07
3.80156e-06
-2.47858e-07
7.03917e-07
3.82527e-06
-2.53745e-07
6.95263e-07
3.8506e-06
-2.5559e-07
6.95134e-07
3.86588e-06
-2.51478e-07
7.04869e-07
3.86442e-06
-2.43945e-07
7.20511e-07
3.84822e-06
-2.36976e-07
7.34516e-07
3.82565e-06
-2.33599e-07
7.40998e-07
3.8054e-06
-2.34113e-07
7.39028e-07
3.79389e-06
-2.37347e-07
7.30416e-07
3.79539e-06
-2.42745e-07
7.18181e-07
3.81089e-06
-2.49135e-07
7.06152e-07
3.83647e-06
-2.54072e-07
6.98685e-07
3.86331e-06
-2.54988e-07
6.99546e-07
3.8797e-06
-2.5002e-07
7.10051e-07
3.87895e-06
-2.41738e-07
7.26245e-07
3.86301e-06
-2.34137e-07
7.40592e-07
3.84034e-06
-2.30258e-07
7.47162e-07
3.81969e-06
-2.30388e-07
7.45051e-07
3.8074e-06
-2.33318e-07
7.3608e-07
3.80776e-06
-2.38524e-07
7.23316e-07
3.82171e-06
-2.44858e-07
7.10629e-07
3.84538e-06
-2.49874e-07
7.02464e-07
3.87006e-06
-2.50977e-07
7.0267e-07
3.88422e-06
-2.46273e-07
7.12628e-07
3.88127e-06
-2.3831e-07
7.28416e-07
3.86331e-06
-2.31049e-07
7.42514e-07
3.83885e-06
-2.27502e-07
7.48973e-07
3.81672e-06
-2.2795e-07
7.46852e-07
3.80325e-06
-2.31209e-07
7.37897e-07
3.80267e-06
-2.36781e-07
7.25083e-07
3.81586e-06
-2.43545e-07
7.12186e-07
3.83884e-06
-2.49069e-07
7.03569e-07
-2.5072e-07
7.03045e-07
5.22771e-06
-5.21309e-06
-5.20662e-07
9.91439e-07
5.21716e-06
-5.06038e-07
1.02352e-06
5.18915e-06
-4.93331e-07
1.04614e-06
5.15607e-06
-4.87541e-07
1.05244e-06
5.12811e-06
-4.8863e-07
1.04401e-06
5.11386e-06
-4.95935e-07
1.02471e-06
5.1178e-06
-5.07307e-07
9.99785e-07
5.14011e-06
-5.2054e-07
9.76186e-07
5.17455e-06
-5.30917e-07
9.62016e-07
5.20844e-06
-5.3394e-07
9.65035e-07
5.22423e-06
-5.2596e-07
9.8922e-07
5.21482e-06
-5.11285e-07
1.02139e-06
5.18791e-06
-4.98387e-07
1.04425e-06
5.15591e-06
-4.92285e-07
1.05091e-06
5.12909e-06
-4.92944e-07
1.04293e-06
5.11608e-06
-4.99699e-07
1.02413e-06
5.12144e-06
-5.10394e-07
9.99718e-07
5.14536e-06
-5.22845e-07
9.766e-07
5.18154e-06
-5.32363e-07
9.62833e-07
5.21721e-06
-5.34487e-07
9.66154e-07
5.23473e-06
-5.25604e-07
9.9053e-07
5.22686e-06
-5.10066e-07
1.02274e-06
5.2012e-06
-4.96372e-07
1.04547e-06
5.17004e-06
-4.89552e-07
1.05187e-06
5.14353e-06
-4.89572e-07
1.04353e-06
5.13027e-06
-4.95779e-07
1.0243e-06
5.13479e-06
-5.06051e-07
9.99438e-07
5.15729e-06
-5.18225e-07
9.7591e-07
5.19156e-06
-5.27619e-07
9.6182e-07
5.22494e-06
-5.29764e-07
9.64934e-07
5.23991e-06
-5.21028e-07
9.89229e-07
5.22938e-06
-5.05727e-07
1.02151e-06
5.20107e-06
-4.92323e-07
1.0445e-06
5.16737e-06
-4.85821e-07
1.05132e-06
5.13853e-06
-4.86179e-07
1.04352e-06
5.12321e-06
-4.92749e-07
1.0249e-06
5.12602e-06
-5.03429e-07
1.00062e-06
5.14716e-06
-5.16073e-07
9.77596e-07
5.1804e-06
-5.26006e-07
9.63866e-07
-5.28751e-07
9.6716e-07
6.50694e-06
-6.49009e-06
-8.10441e-07
1.13534e-06
6.49133e-06
-7.9317e-07
1.19104e-06
6.45702e-06
-7.77702e-07
1.22607e-06
6.41896e-06
-7.69977e-07
1.23403e-06
6.38758e-06
-7.69966e-07
1.22049e-06
6.37134e-06
-7.77565e-07
1.19107e-06
6.37567e-06
-7.90325e-07
1.1525e-06
6.40145e-06
-8.0563e-07
1.1143e-06
6.44325e-06
-8.18468e-07
1.08896e-06
6.48655e-06
-8.23844e-07
1.09148e-06
6.50437e-06
-8.15219e-07
1.13478e-06
6.48973e-06
-7.97997e-07
1.19043e-06
6.45641e-06
-7.82474e-07
1.22548e-06
6.41937e-06
-7.74601e-07
1.2335e-06
6.3891e-06
-7.74356e-07
1.22003e-06
6.37405e-06
-7.81629e-07
1.19068e-06
6.37968e-06
-7.93965e-07
1.15214e-06
6.40686e-06
-8.08741e-07
1.11392e-06
6.45012e-06
-8.20946e-07
1.08849e-06
6.49482e-06
-8.25598e-07
1.09089e-06
6.5139e-06
-8.16176e-07
1.13405e-06
6.50028e-06
-7.9811e-07
1.1895e-06
6.46766e-06
-7.81723e-07
1.22427e-06
6.43094e-06
-7.72992e-07
1.232e-06
6.40054e-06
-7.71919e-07
1.21825e-06
6.38493e-06
-7.78427e-07
1.18866e-06
6.38955e-06
-7.90101e-07
1.14997e-06
6.41532e-06
-8.0436e-07
1.11171e-06
6.45683e-06
-8.16213e-07
1.08637e-06
6.49956e-06
-8.20682e-07
1.08899e-06
6.51657e-06
-8.11237e-07
1.13243e-06
6.50088e-06
-7.93285e-07
1.18826e-06
6.46627e-06
-7.77116e-07
1.22354e-06
6.42771e-06
-7.68679e-07
1.23188e-06
6.39565e-06
-7.67958e-07
1.21879e-06
6.37861e-06
-7.74866e-07
1.18986e-06
6.38206e-06
-7.86987e-07
1.15178e-06
6.40691e-06
-8.01747e-07
1.11403e-06
6.44776e-06
-8.14158e-07
1.08907e-06
-8.19237e-07
1.09188e-06
7.77609e-06
-7.75804e-06
-1.09784e-06
1.16394e-06
7.75627e-06
-1.08386e-06
1.24341e-06
7.71879e-06
-1.06982e-06
1.28918e-06
7.67884e-06
-1.06114e-06
1.2985e-06
7.64622e-06
-1.05956e-06
1.28166e-06
7.62877e-06
-1.06507e-06
1.24474e-06
7.63303e-06
-1.07616e-06
1.19467e-06
7.66033e-06
-1.08923e-06
1.14243e-06
7.70645e-06
-1.10083e-06
1.10405e-06
7.75592e-06
-1.10682e-06
1.10165e-06
7.77452e-06
-1.10198e-06
1.16324e-06
7.75521e-06
-1.08808e-06
1.24256e-06
7.71822e-06
-1.07407e-06
1.28823e-06
7.67881e-06
-1.06535e-06
1.29748e-06
7.64679e-06
-1.06371e-06
1.28058e-06
7.63008e-06
-1.06911e-06
1.24359e-06
7.63523e-06
-1.08003e-06
1.19344e-06
7.66357e-06
-1.09282e-06
1.14108e-06
7.71083e-06
-1.104e-06
1.10256e-06
7.76145e-06
-1.10942e-06
1.10002e-06
7.78109e-06
-1.10388e-06
1.16156e-06
7.76263e-06
-1.08916e-06
1.2408e-06
7.72626e-06
-1.07423e-06
1.28636e-06
7.68715e-06
-1.06454e-06
1.29551e-06
7.6551e-06
-1.0619e-06
1.27854e-06
7.63797e-06
-1.06636e-06
1.24152e-06
7.64235e-06
-1.07642e-06
1.19142e-06
7.66959e-06
-1.08852e-06
1.13921e-06
7.7155e-06
-1.0992e-06
1.10098e-06
7.76459e-06
-1.10433e-06
1.09881e-06
7.78267e-06
-1.0987e-06
1.16074e-06
7.7627e-06
-1.08406e-06
1.24041e-06
7.72491e-06
-1.06935e-06
1.28649e-06
7.68453e-06
-1.06e-06
1.29622e-06
7.65138e-06
-1.05778e-06
1.27985e-06
7.63334e-06
-1.06268e-06
1.24341e-06
7.63697e-06
-1.07323e-06
1.19384e-06
7.66364e-06
-1.08585e-06
1.14206e-06
7.70916e-06
-1.09711e-06
1.10412e-06
-1.10284e-06
1.10208e-06
9.04186e-06
-9.02548e-06
1.10876e-06
-1.36682e-06
9.02094e-06
1.19926e-06
-1.36024e-06
8.98372e-06
1.24996e-06
-1.3496e-06
8.9446e-06
1.26085e-06
-1.34109e-06
8.91243e-06
1.24434e-06
-1.33883e-06
8.89555e-06
1.20572e-06
-1.34325e-06
8.90092e-06
1.15135e-06
-1.35297e-06
8.92887e-06
1.09228e-06
-1.36141e-06
8.97445e-06
1.04598e-06
-1.3671e-06
9.02386e-06
1.03827e-06
-1.3704e-06
9.04043e-06
1.10781e-06
-1.37021e-06
9.01966e-06
1.19809e-06
-1.36369e-06
8.98259e-06
1.24862e-06
-1.3531e-06
8.94366e-06
1.25936e-06
-1.34465e-06
8.91176e-06
1.2427e-06
-1.34246e-06
8.89532e-06
1.20393e-06
-1.34699e-06
8.90132e-06
1.14939e-06
-1.3568e-06
8.93009e-06
1.09013e-06
-1.36522e-06
8.97662e-06
1.04363e-06
-1.3707e-06
9.02701e-06
1.03577e-06
-1.37358e-06
9.04447e-06
1.10531e-06
-1.37281e-06
9.02444e-06
1.19564e-06
-1.36551e-06
8.98791e-06
1.24621e-06
-1.354e-06
8.94927e-06
1.25701e-06
-1.3445e-06
8.91741e-06
1.24046e-06
-1.34121e-06
8.9007e-06
1.20185e-06
-1.34463e-06
8.90617e-06
1.14755e-06
-1.35341e-06
8.93415e-06
1.08863e-06
-1.36101e-06
8.97972e-06
1.04258e-06
-1.36591e-06
9.02906e-06
1.03524e-06
-1.36847e-06
9.04547e-06
1.10527e-06
-1.36758e-06
9.0245e-06
1.19608e-06
-1.36038e-06