/*--------------------------------*- C++ -*----------------------------------*\
| =========                 |                                                 |
| \\      /  F ield         | OpenFOAM: The Open Source CFD Toolbox           |
|  \\    /   O peration     | Version:  2112                                  |
|   \\  /    A nd           | Website:  www.openfoam.com                      |
|    \\/     M anipulation  |                                                 |
\*---------------------------------------------------------------------------*/
FoamFile
{
    version     2.0;
    format      ascii;
    arch        "LSB;label=32;scalar=64";
    class       volScalarField;
    location    "1";
    object      alpha.water_0;
}
// * * * * * * * * * * * * * * * * * * * * * * * * * * * * * * * * * * * * * //

dimensions      [0 0 0 0 0 0 0];

internalField   nonuniform List<scalar> 
27200
(
1
1
1
1
1
1
1
1
1
1
1
1
1
1
1
1
1
1
1
1
1
1
1
1
1
1
1
1
1
1
1
1
1
1
1
1
1
1
1
1
1
1
1
1
1
1
1
1
1
1
1
1
1
1
1
1
1
1
1
1
1
1
1
1
1
1
1
1
1
1
1
1
1
1
1
1
1
1
1
1
1
1
1
1
1
1
1
1
1
1
1
1
1
1
1
1
1
1
1
1
1
1
1
1
1
1
1
1
1
1
1
1
1
1
1
1
1
1
1
1
1
1
1
1
1
1
1
1
1
1
1
1
1
1
1
1
1
1
1
1
1
1
1
1
1
1
1
1
1
1
1
1
1
1
1
1
1
1
1
1
1
1
1
1
1
1
1
1
1
1
1
1
1
1
1
1
1
1
1
1
1
1
1
1
1
1
1
1
1
1
1
1
1
1
1
1
1
1
1
1
1
1
1
1
1
1
1
1
1
1
1
1
1
1
1
1
1
1
1
1
1
1
1
1
1
1
1
1
1
1
1
1
1
1
1
1
1
1
1
1
1
1
1
1
1
1
1
1
1
1
1
1
1
1
1
1
1
1
1
1
1
1
1
1
1
1
1
1
1
1
1
1
1
1
1
1
1
1
1
1
1
1
1
1
1
1
1
1
1
1
1
1
1
1
1
1
1
1
1
1
1
1
1
1
1
1
1
1
1
1
1
1
1
1
1
1
1
1
1
1
1
1
1
1
1
1
1
1
1
1
1
1
1
1
1
1
1
1
1
1
1
1
1
1
1
1
1
1
1
1
1
1
1
1
1
1
1
1
1
1
1
1
1
1
1
1
1
1
1
1
1
1
1
1
1
1
1
1
1
1
1
1
1
1
1
1
1
1
1
1
1
1
1
1
1
1
1
1
1
1
1
1
1
1
1
1
1
1
1
1
1
1
1
1
1
1
1
1
1
1
1
1
1
1
1
1
1
1
1
1
1
1
1
1
1
1
1
1
1
1
1
1
1
1
1
1
1
1
1
1
1
1
1
1
1
1
1
1
1
1
1
1
1
1
1
1
1
1
1
1
1
1
1
1
1
1
1
1
1
1
1
1
1
1
1
1
1
1
1
1
1
1
1
1
1
1
1
1
1
1
1
1
1
1
1
1
1
1
1
1
1
1
1
1
1
1
1
1
1
1
1
1
1
1
1
1
1
1
1
1
1
1
1
1
1
1
1
1
1
1
1
1
1
1
1
1
1
1
1
1
1
1
1
1
1
1
1
1
1
1
1
1
1
1
1
1
1
1
1
1
1
1
1
1
1
1
1
1
1
1
1
1
1
1
1
1
1
1
1
1
1
1
1
1
1
1
1
1
1
1
1
1
1
1
1
1
1
1
1
1
1
1
1
1
1
1
1
1
1
1
1
1
1
1
1
1
1
1
1
1
1
1
1
1
1
1
1
1
1
1
1
1
1
1
1
1
1
1
1
1
1
1
1
1
1
1
1
1
1
1
1
1
1
1
1
1
1
1
1
1
1
1
1
1
1
1
1
1
1
1
1
1
1
1
1
1
1
1
1
1
1
1
1
1
1
1
1
1
1
1
1
1
1
1
1
1
1
1
1
1
1
1
1
1
1
1
1
1
1
1
1
1
1
1
1
1
1
1
1
1
1
1
1
1
1
1
1
1
1
1
1
1
1
1
1
1
1
1
1
1
1
1
1
1
1
1
1
1
1
1
1
1
1
1
1
1
1
1
1
1
1
1
1
1
1
1
1
1
1
1
1
1
1
1
1
1
1
1
1
1
1
1
1
1
1
1
1
1
1
1
1
1
1
1
1
1
1
1
1
1
1
1
1
1
1
1
1
1
1
1
1
1
1
1
1
1
1
1
1
1
1
1
1
1
1
1
1
1
1
1
1
1
1
1
1
1
1
1
1
1
1
1
1
1
1
1
1
1
1
1
1
1
1
1
1
1
1
1
1
1
1
1
1
1
1
1
1
1
1
1
1
1
1
1
1
1
1
1
1
1
1
1
1
1
1
1
1
1
1
1
1
1
1
1
1
1
1
1
1
1
1
1
1
1
1
1
1
1
1
1
1
1
1
1
1
1
1
1
1
1
1
1
1
1
1
1
1
1
1
1
1
1
1
1
1
1
1
1
1
1
1
1
1
1
1
1
1
1
1
1
1
1
1
1
1
1
1
1
1
1
1
1
1
1
1
1
1
1
1
1
1
1
1
1
1
1
1
1
1
1
1
1
1
1
1
1
1
1
1
1
1
1
1
1
1
1
1
1
1
1
1
1
1
1
1
1
1
1
1
1
1
1
1
1
1
1
1
1
1
1
1
1
1
1
1
1
1
1
1
1
1
1
1
1
1
1
1
1
1
1
1
1
1
1
1
1
1
1
1
1
1
1
1
1
1
1
1
1
1
1
1
1
1
1
1
1
1
1
1
1
1
1
1
1
1
1
1
1
1
1
1
1
1
1
1
1
1
1
1
1
1
1
1
1
1
1
1
1
1
1
1
1
1
1
1
1
1
1
1
1
1
1
1
1
1
1
1
1
1
1
1
1
1
1
1
1
1
1
1
1
1
1
1
1
1
1
1
1
1
1
1
1
1
1
1
1
1
1
1
1
1
1
1
1
1
1
1
1
1
1
1
1
1
1
1
1
1
1
1
1
1
1
1
1
1
1
1
1
1
1
1
1
1
1
1
1
1
1
1
1
1
1
1
1
1
1
1
1
1
1
1
1
1
1
1
1
1
1
1
1
1
1
1
1
1
1
1
1
1
1
1
1
1
1
1
1
1
1
1
1
1
1
1
1
1
1
1
1
1
1
1
1
1
1
1
1
1
1
1
1
1
1
1
1
1
1
1
1
1
1
1
1
1
1
1
1
1
1
1
1
1
1
1
1
1
1
1
1
1
1
1
1
1
1
1
1
1
1
1
1
1
1
1
1
1
1
1
1
1
1
1
1
1
1
1
1
1
1
1
1
1
1
1
1
1
1
1
1
1
1
1
1
1
1
1
1
1
1
1
1
1
1
1
1
1
1
1
1
1
1
1
1
1
1
1
1
1
1
1
1
1
1
1
1
1
1
1
1
1
1
1
1
1
1
1
1
1
1
1
1
1
1
1
1
1
1
1
1
1
1
1
1
1
1
1
1
1
1
1
1
1
1
1
1
1
1
1
1
1
1
1
1
1
1
1
1
1
1
1
1
1
1
1
1
1
1
1
1
1
1
1
1
1
1
1
1
1
1
1
1
1
1
1
1
1
1
1
1
1
1
1
1
1
1
1
1
1
1
1
1
1
1
1
1
1
1
1
1
1
1
1
1
1
1
1
1
1
1
1
1
1
1
1
1
1
1
1
1
1
1
1
1
1
1
1
1
1
1
1
1
1
1
1
1
1
1
1
1
1
1
1
1
1
1
1
1
1
1
1
1
1
1
1
1
1
1
1
1
1
1
1
1
1
1
1
1
1
1
1
1
1
1
1
1
1
1
1
1
1
1
1
1
1
1
1
1
1
1
1
1
1
1
1
1
1
1
1
1
1
1
1
1
1
1
1
1
1
1
1
1
1
1
1
1
1
1
1
1
1
1
1
1
1
1
1
1
1
1
1
1
1
1
1
1
1
1
1
1
1
1
1
1
1
1
1
1
1
1
1
1
1
1
1
1
1
1
1
1
1
1
1
1
1
1
1
1
1
1
1
1
1
1
1
1
1
1
1
1
1
1
1
1
1
1
1
1
1
1
1
1
1
1
1
1
1
1
1
1
1
1
1
1
1
1
1
1
1
1
1
1
1
1
1
1
1
1
1
1
1
1
1
1
1
1
1
1
1
1
1
1
1
1
1
1
1
1
1
1
1
1
1
1
1
1
1
1
1
1
1
1
1
1
1
1
1
1
1
1
1
1
1
1
1
1
1
1
1
1
1
1
1
1
1
1
1
1
1
1
1
1
1
1
1
1
1
1
1
1
1
1
1
1
1
1
1
1
1
1
1
1
1
1
1
1
1
1
1
1
1
1
1
1
1
1
1
1
1
1
1
1
1
1
1
1
1
1
1
1
1
1
1
1
1
1
1
1
1
1
1
1
1
1
1
1
1
1
1
1
1
1
1
1
1
1
1
1
1
1
1
1
1
1
1
1
1
1
1
1
1
1
1
1
1
1
1
1
1
1
1
1
1
1
1
1
1
1
1
1
1
1
1
1
1
1
1
1
1
1
1
1
1
1
1
1
1
1
1
1
1
1
1
1
1
1
1
1
1
1
1
1
1
1
1
1
1
1
1
1
1
1
1
1
1
1
1
1
1
1
1
1
1
1
1
1
1
1
1
1
1
1
1
1
1
1
1
1
1
1
1
1
1
1
1
1
1
1
1
1
1
1
1
1
1
1
1
1
1
1
1
1
1
1
1
1
1
1
1
1
1
1
1
1
1
1
1
1
1
1
1
1
1
1
1
1
1
1
1
1
1
1
1
1
1
1
1
1
1
1
1
1
1
1
1
1
1
1
1
1
1
1
1
1
1
1
1
1
1
1
1
1
1
1
1
1
1
1
1
1
1
1
1
1
1
1
1
1
1
1
1
1
1
1
1
1
1
1
1
1
1
1
1
1
1
1
1
1
1
1
1
1
1
1
1
1
1
1
1
1
1
1
1
1
1
1
1
1
1
1
1
1
1
1
1
1
1
1
1
1
1
1
1
1
1
1
1
1
1
1
1
1
1
1
1
1
1
1
1
1
1
1
1
1
1
1
1
1
1
1
1
1
1
1
1
1
1
1
1
1
1
1
1
1
1
1
1
1
1
1
1
1
1
1
1
1
1
1
1
1
1
1
1
1
1
1
1
1
1
1
1
1
1
1
1
1
1
1
1
1
1
1
1
1
1
1
1
1
1
1
1
1
1
1
1
1
1
1
1
1
1
1
1
1
1
1
1
1
1
1
1
1
1
1
1
1
1
1
1
1
1
1
1
1
1
1
1
1
1
1
1
1
1
1
1
1
1
1
1
1
1
1
1
1
1
1
1
1
1
1
1
1
1
1
1
1
1
1
1
1
1
1
1
1
1
1
1
1
1
1
1
1
1
1
1
1
1
1
1
1
1
1
1
1
1
1
1
1
1
1
1
1
1
1
1
1
1
1
1
1
1
1
1
1
1
1
1
1
1
1
1
1
1
1
1
1
1
1
1
1
1
1
1
1
1
1
1
1
1
1
1
1
1
1
1
1
1
1
1
1
1
1
1
1
1
1
1
1
1
1
1
1
1
1
1
1
1
1
1
1
1
1
1
1
1
1
1
1
1
1
1
1
1
1
1
1
1
1
1
1
1
1
1
1
1
1
1
1
1
1
1
1
1
1
1
1
1
1
1
1
1
1
1
1
1
1
1
1
1
1
1
1
1
1
1
1
1
1
1
1
1
1
1
1
1
1
1
1
1
1
1
1
1
1
1
1
1
1
1
1
1
1
1
1
1
1
1
1
1
1
1
1
1
1
1
1
1
1
1
1
1
1
1
1
1
1
1
1
1
1
1
1
1
1
1
1
1
1
1
1
1
1
1
1
1
1
1
1
1
1
1
1
1
1
1
1
1
1
1
1
1
1
1
1
1
1
1
1
1
1
1
1
1
1
1
1
1
1
1
1
1
1
1
1
1
1
1
1
1
1
1
1
1
1
1
1
1
1
1
1
1
1
1
1
1
1
1
1
1
1
1
1
1
1
1
1
1
1
1
1
1
1
1
1
1
1
1
1
1
1
1
1
1
1
1
1
1
1
1
1
1
1
1
1
1
1
1
1
1
1
1
1
1
1
1
1
1
1
1
1
1
1
1
1
1
1
1
1
1
1
1
1
1
1
1
1
1
1
1
1
1
1
1
1
1
1
1
1
1
1
1
1
1
1
1
1
1
1
1
1
1
1
1
1
1
1
1
1
1
1
1
1
1
1
1
1
1
1
1
1
1
1
1
1
1
1
1
1
1
1
1
1
1
1
1
1
1
1
1
1
1
1
1
1
1
1
1
1
1
1
1
1
1
1
1
1
1
1
1
1
1
1
1
1
1
1
1
1
1
1
1
1
1
1
1
1
1
1
1
1
1
1
1
1
1
1
1
1
1
1
1
1
1
1
1
1
1
1
1
1
1
1
1
1
1
1
1
1
1
1
1
1
1
1
1
1
1
1
1
1
1
1
1
1
1
1
1
1
1
1
1
1
1
1
1
1
1
1
1
1
1
1
1
1
1
1
1
1
1
1
1
1
1
1
1
1
1
1
1
1
1
1
1
1
1
1
1
1
1
1
1
1
1
1
1
1
1
1
1
1
1
1
1
1
1
1
1
1
1
1
1
1
1
1
1
1
1
1
1
1
1
1
1
1
1
1
1
1
1
1
1
1
1
1
1
1
1
1
1
1
1
1
1
1
1
1
1
1
1
1
1
1
1
1
1
1
1
1
1
1
1
1
1
1
1
1
1
1
1
1
1
1
1
1
1
1
1
1
1
1
1
1
1
1
1
1
1
1
1
1
1
1
1
1
1
1
1
1
1
1
1
1
1
1
1
1
1
1
1
1
1
1
1
1
1
1
1
1
1
1
1
1
1
1
1
1
1
1
1
1
1
1
1
1
1
1
1
1
1
1
1
1
1
1
1
1
1
1
1
1
1
1
1
1
1
1
1
1
1
1
1
1
1
1
1
1
1
1
1
1
1
1
1
1
1
1
1
1
1
1
1
1
1
1
1
1
1
1
1
1
1
1
1
1
1
1
1
1
1
1
1
1
1
1
1
1
1
1
1
1
1
1
1
1
1
1
1
1
1
1
1
1
1
1
1
1
1
1
1
1
1
1
1
1
1
1
1
1
1
1
1
1
1
1
1
1
1
1
1
1
1
1
1
1
1
1
1
1
1
1
1
1
1
1
1
1
1
1
1
1
1
1
1
1
1
1
1
1
1
1
1
1
1
1
1
1
1
1
1
1
1
1
1
1
1
1
1
1
1
1
1
1
1
1
1
1
1
1
1
1
1
1
1
1
1
1
1
1
1
1
1
1
1
1
1
1
1
1
1
1
1
1
1
1
1
1
1
1
1
1
1
1
1
1
1
1
1
1
1
1
1
1
1
1
1
1
1
1
1
1
1
1
1
1
1
1
1
1
1
1
1
1
1
1
1
1
1
1
1
1
1
1
1
1
1
1
1
1
1
1
1
1
1
1
1
1
1
1
1
1
1
1
1
1
1
1
1
1
1
1
1
1
1
1
1
1
1
1
1
1
1
1
1
1
1
1
1
1
1
1
1
1
1
1
1
1
1
1
1
1
1
1
1
1
1
1
1
1
1
1
1
1
1
1
1
1
1
1
1
1
1
1
1
1
1
1
1
1
1
1
1
1
1
1
1
1
1
1
1
1
1
1
1
1
1
1
1
1
1
1
1
1
1
1
1
1
1
1
1
1
1
1
1
1
1
1
1
1
1
1
1
1
1
1
1
1
1
1
1
1
1
1
1
1
1
1
1
1
1
1
1
1
1
1
1
1
1
1
1
1
1
1
1
1
1
1
1
1
1
1
1
1
1
1
1
1
1
1
1
1
1
1
1
1
1
1
1
1
1
1
1
1
1
1
1
1
1
1
1
1
1
1
1
1
1
1
1
1
1
1
1
1
1
1
1
1
1
1
1
1
1
1
1
1
1
1
1
1
1
1
1
1
1
1
1
1
1
1
1
1
1
1
1
1
1
1
1
1
1
1
1
1
1
1
1
1
1
1
1
1
1
1
1
1
1
1
1
1
1
1
1
1
1
1
1
1
1
1
1
1
1
1
1
1
1
1
1
1
1
1
1
1
1
1
1
1
1
1
1
1
1
1
1
1
1
1
1
1
1
1
1
1
1
1
1
1
1
1
1
1
1
1
1
1
1
1
1
1
1
1
1
1
1
1
1
1
1
1
1
1
1
1
1
1
1
1
1
1
1
1
1
1
1
1
1
1
1
1
1
1
1
1
1
1
1
1
1
1
1
1
1
1
1
1
1
1
1
1
1
1
1
1
1
1
1
1
1
1
1
1
1
1
1
1
1
1
1
1
1
1
1
1
1
1
1
1
1
1
1
1
1
1
1
1
1
1
1
1
1
1
1
1
1
1
1
1
1
1
1
1
1
1
1
1
1
1
1
1
1
1
1
1
1
1
1
1
1
1
1
1
1
1
1
1
1
1
1
1
1
1
1
1
1
1
1
1
1
1
1
1
1
1
1
1
1
1
1
1
1
1
1
1
1
1
1
1
1
1
1
1
1
1
1
1
1
1
1
1
1
1
1
1
1
1
1
1
1
1
1
1
1
1
1
1
1
1
1
1
1
1
1
1
1
1
1
1
1
1
1
1
1
1
1
1
1
1
1
1
1
1
1
1
1
1
1
1
1
1
1
1
1
1
1
1
1
1
1
1
1
1
1
1
1
1
1
1
1
1
1
1
1
1
1
1
1
1
1
1
1
1
1
1
1
1
1
1
1
1
1
1
1
1
1
1
1
1
1
1
1
1
1
1
1
1
1
1
1
1
1
1
1
1
1
1
1
1
1
1
1
1
1
1
1
1
1
1
1
1
1
1
1
1
1
1
1
1
1
1
1
1
1
1
1
1
1
1
1
1
1
1
1
1
1
1
1
1
1
1
1
1
1
1
1
1
1
1
1
1
1
1
1
1
1
1
1
1
1
1
1
1
1
1
1
1
1
1
1
1
1
1
1
1
1
1
1
1
1
1
1
1
1
1
1
1
1
1
1
1
1
1
1
1
1
1
1
1
1
1
1
1
1
1
1
1
1
1
1
1
1
1
1
1
1
1
1
1
1
1
1
1
1
1
1
1
1
1
1
1
1
1
1
1
1
1
1
1
1
1
1
1
1
1
1
1
1
1
1
1
1
1
1
1
1
1
1
1
1
1
1
1
1
1
1
1
1
1
1
1
1
1
1
1
1
1
1
1
1
1
1
1
1
1
1
1
1
1
1
1
1
1
1
1
1
1
1
1
1
1
1
1
1
1
1
1
1
1
1
1
1
1
1
1
1
1
1
1
1
1
1
1
1
1
1
1
1
1
1
1
1
1
1
1
1
1
1
1
1
1
1
1
1
1
1
1
1
1
1
1
1
1
1
1
1
1
1
1
1
1
1
1
1
1
1
1
1
1
1
1
1
1
1
1
1
1
1
1
1
1
1
1
1
1
1
1
1
1
1
1
1
1
1
1
1
1
1
1
1
1
1
1
1
1
1
1
1
1
1
1
1
1
1
1
1
1
1
1
1
1
1
1
1
1
1
1
1
1
1
1
1
1
1
1
1
1
1
1
1
1
1
1
1
1
1
1
1
1
1
1
1
1
1
1
1
1
1
1
1
1
1
1
1
1
1
1
1
1
1
1
1
1
1
1
1
1
1
1
1
1
1
1
1
1
1
1
1
1
1
1
1
1
1
1
1
1
1
1
1
1
1
1
1
1
1
1
1
1
1
1
1
1
1
1
1
1
1
1
1
1
1
1
1
1
1
1
1
1
1
1
1
1
1
1
1
1
1
1
1
1
1
1
1
1
1
1
1
1
1
1
1
1
1
1
1
1
1
1
1
1
1
1
1
1
1
1
1
1
1
1
1
1
1
1
1
1
1
1
1
1
1
1
1
1
1
1
1
1
1
1
1
1
1
1
1
1
1
1
1
1
1
1
1
1
1
1
1
1
1
1
1
1
1
1
1
1
1
1
1
1
1
1
1
1
1
1
1
1
1
1
1
1
1
1
1
1
1
1
1
1
1
1
1
1
1
1
1
1
1
1
1
1
1
1
1
1
1
1
1
1
1
1
1
1
1
1
1
1
1
1
1
1
1
1
1
1
1
1
1
1
1
1
1
1
1
1
1
1
1
1
1
1
1
1
1
1
1
1
1
1
1
1
1
1
1
1
1
1
1
1
1
1
1
1
1
1
1
1
1
1
1
1
1
1
1
1
1
1
1
1
1
1
1
1
1
1
1
1
1
1
1
1
1
1
1
1
1
1
1
1
1
1
1
1
1
1
1
1
1
1
1
1
1
1
1
1
1
1
1
1
1
1
1
1
1
1
1
1
1
1
1
1
1
1
1
1
1
1
1
1
1
1
1
1
1
1
1
1
1
1
1
1
1
1
1
1
1
1
1
1
1
1
1
1
1
1
1
1
1
1
1
1
1
1
1
1
1
1
1
1
1
1
1
1
1
1
1
1
1
1
1
1
1
1
1
1
1
1
1
1
1
1
1
1
1
1
1
1
1
1
1
1
1
1
1
1
1
1
1
1
1
1
1
1
1
1
1
1
1
1
1
1
1
1
1
1
1
1
1
1
1
1
1
1
1
1
1
1
1
1
1
1
1
1
1
1
1
1
1
1
1
1
1
1
1
1
1
1
1
1
1
1
1
1
1
1
1
1
1
1
1
1
1
1
1
1
1
1
1
1
1
1
1
1
1
1
1
1
1
1
1
1
1
1
1
1
1
1
1
1
1
1
1
1
1
1
1
1
1
1
1
1
1
1
1
1
1
1
1
1
1
1
1
1
1
1
1
1
1
1
1
1
1
1
1
1
1
1
1
1
1
1
1
1
1
1
1
1
1
1
1
1
1
1
1
1
1
1
1
1
1
1
1
1
1
1
1
1
1
1
1
1
1
1
1
1
1
1
1
1
1
1
1
1
1
1
1
1
1
1
1
1
1
1
1
1
1
1
1
1
1
1
1
1
1
1
1
1
1
1
1
1
1
1
1
1
1
1
1
1
1
1
1
1
1
1
1
1
1
1
1
1
1
1
1
1
1
1
1
1
1
1
1
1
1
1
1
1
1
1
1
1
1
1
1
1
1
1
1
1
1
1
1
1
1
1
1
1
1
1
1
1
1
1
1
1
1
1
1
1
1
1
1
1
1
1
1
1
1
1
1
1
1
1
1
1
1
1
1
1
1
1
1
1
1
1
1
1
1
1
1
1
1
1
1
1
1
1
1
1
1
1
1
1
1
1
1
1
1
1
1
1
1
1
1
1
1
1
1
1
1
1
1
1
1
1
1
1
1
1
1
1
1
1
1
1
1
1
1
1
1
1
1
1
1
1
1
1
1
1
1
1
1
1
1
1
1
1
1
1
1
1
1
1
1
1
1
1
1
1
1
1
1
1
1
1
1
1
1
1
1
1
1
1
1
1
1
1
1
1
1
1
1
1
1
1
1
1
1
1
1
1
1
1
1
1
1
1
1
1
1
1
1
1
1
1
1
1
1
1
1
1
1
1
1
1
1
1
1
1
1
1
1
1
1
1
1
1
1
1
1
1
1
1
1
1
1
1
1
1
1
1
1
1
1
1
1
1
1
1
1
1
1
1
1
1
1
1
1
1
1
1
1
1
1
1
1
1
1
1
1
1
1
1
1
1
1
1
1
1
1
1
1
1
1
1
1
1
1
1
1
1
1
1
1
1
1
1
1
1
1
1
1
1
1
1
1
1
1
1
1
1
1
1
1
1
1
1
1
1
1
1
1
1
1
1
1
1
1
1
1
1
1
1
1
1
1
1
1
1
1
1
1
1
1
1
1
1
1
1
1
1
1
1
1
1
1
1
1
1
1
1
1
1
1
1
1
1
1
1
1
1
1
1
1
1
1
1
1
1
1
1
1
1
1
1
1
1
1
1
1
1
1
1
1
1
1
1
1
1
1
1
1
1
1
1
1
1
1
1
1
1
1
1
1
1
1
1
1
1
1
1
1
1
1
1
1
1
1
1
1
1
1
1
1
1
1
1
1
1
1
1
1
1
1
1
1
1
1
1
1
1
1
1
1
1
1
1
1
1
1
1
1
1
1
1
1
1
1
1
1
1
1
1
1
1
1
1
1
1
1
1
1
1
1
1
1
1
1
1
1
1
1
1
1
1
1
1
1
1
1
1
1
1
1
1
1
1
1
1
1
1
1
1
1
1
1
1
1
1
1
1
1
1
1
1
1
1
1
1
1
1
1
1
1
1
1
1
1
1
1
1
1
1
1
1
1
1
1
1
1
1
1
1
1
1
1
1
1
1
1
1
1
1
1
1
1
1
1
1
1
1
1
1
1
1
1
1
1
1
1
1
1
1
1
1
1
1
1
1
1
1
1
1
1
1
1
1
1
1
1
1
1
1
1
1
1
1
1
1
1
1
1
1
1
1
1
1
1
1
1
1
1
1
1
1
1
1
1
1
1
1
1
1
1
1
1
1
1
1
1
1
1
1
1
1
1
1
1
1
1
1
1
1
1
1
1
1
1
1
1
1
1
1
1
1
1
1
1
1
1
1
1
1
1
1
1
1
1
1
1
1
1
1
1
1
1
1
1
1
1
1
1
1
1
1
1
1
1
1
1
1
1
1
1
1
1
1
1
1
1
1
1
1
1
1
1
1
1
1
1
1
1
1
1
1
1
1
1
1
1
1
1
1
1
1
1
1
1
1
1
1
1
1
1
1
1
1
1
1
1
1
1
1
1
1
1
1
1
1
1
1
1
1
1
1
1
1
1
1
1
1
1
1
1
1
1
1
1
1
1
1
1
1
1
1
1
1
1
1
1
1
1
1
1
1
1
1
1
1
1
1
1
1
1
1
1
1
1
1
1
1
1
1
1
1
1
1
1
1
1
1
1
1
1
1
1
1
1
1
1
1
1
1
1
1
1
1
1
1
1
1
1
1
1
1
1
1
1
1
1
1
1
1
1
1
1
1
1
1
1
1
1
1
1
1
1
1
1
1
1
1
1
1
1
1
1
1
1
1
1
1
1
1
1
1
1
1
1
1
1
1
1
1
1
1
1
1
1
1
1
1
1
1
1
1
1
1
1
1
1
1
1.00001
1.00001
1.00001
1.00001
1.00001
1.00001
1.00001
1.00001
1.00001
1.00001
1
1
1.00001
1
1
1
1
1
1
1
1
1
1
1
1
1
1
1
1
1
1
1
1
1
1
1
1
1.00001
1.00001
1.00001
1.00001
1.00001
1
1
1
1.00001
1.00001
1.00001
1
1
1.00001
1
1
1
1
1
1
1
1
1
1
1
1
1
1
1
1
1
1
1
1
1
1
1
1
1
1
1
1.00001
1.00001
1.00001
1.00001
1.00001
1
1
1
1
1.00001
1
1
1
1
1
1
1
1
1
1
1
1
1
1
0.881446
0.881817
0.882035
0.882175
0.882238
0.880386
0.875355
0.86954
0.867157
0.866425
0.861676
0.852822
0.843528
0.837222
0.835105
0.835685
0.835831
0.835463
0.834763
0.834173
0.834448
0.834834
0.835378
0.835308
0.834963
0.834564
0.834816
0.836225
0.839064
0.843133
0.847803
0.852566
0.857244
0.86199
0.867073
0.872047
0.876202
0.878937
0.880535
0.881257
0.85594
0.857432
0.858998
0.860359
0.861542
0.861561
0.861356
0.861455
0.861705
0.861943
0.860501
0.856779
0.852199
0.848107
0.843728
0.839135
0.834041
0.829024
0.824483
0.820651
0.818037
0.816632
0.815806
0.815176
0.814573
0.814473
0.81577
0.81886
0.823117
0.827214
0.830526
0.83311
0.835936
0.839105
0.842544
0.846349
0.849843
0.852271
0.853765
0.854899
0.867665
0.869833
0.870924
0.871424
0.871899
0.872237
0.872214
0.871442
0.869696
0.86708
0.863936
0.860502
0.856946
0.853187
0.849039
0.844444
0.839653
0.835295
0.831868
0.829211
0.826921
0.824745
0.822627
0.820622
0.818763
0.816962
0.816007
0.816026
0.816868
0.819243
0.823222
0.827365
0.831535
0.836085
0.841049
0.846309
0.851685
0.856717
0.860931
0.864522
0.876068
0.877744
0.878553
0.878249
0.877481
0.87686
0.876086
0.874886
0.873273
0.871172
0.868373
0.864703
0.860209
0.855069
0.849711
0.844921
0.840703
0.836581
0.832758
0.829987
0.828597
0.827772
0.826846
0.825971
0.825677
0.825903
0.826424
0.827412
0.829102
0.831825
0.835783
0.840555
0.845334
0.849912
0.854471
0.859067
0.863491
0.867482
0.871072
0.873926
0.886113
0.887569
0.888016
0.886819
0.885404
0.884787
0.884333
0.883276
0.881555
0.879292
0.876264
0.872303
0.867919
0.863469
0.859368
0.856479
0.853927
0.850396
0.846725
0.845099
0.844761
0.844548
0.844025
0.8435
0.843256
0.843388
0.843959
0.845165
0.847118
0.849887
0.853391
0.857474
0.86178
0.865688
0.869186
0.872601
0.876127
0.879512
0.88236
0.884456
0.0787277
0.0838356
0.0895839
0.0994017
0.10937
0.100169
0.0871681
0.0883057
0.0938335
0.0896969
0.0707228
0.0574933
0.0552283
0.0557868
0.0552305
0.0535785
0.0517733
0.0499466
0.0483052
0.0471029
0.0459821
0.0457805
0.0459326
0.046072
0.0462899
0.0464442
0.0463532
0.0460045
0.0460425
0.0464491
0.0472828
0.0486863
0.0508453
0.053539
0.0565206
0.0596035
0.0628301
0.0663673
0.0702268
0.0743948
0.0815648
0.0832397
0.0846684
0.0858372
0.0873718
0.0892243
0.0904486
0.0911415
0.0913751
0.0931859
0.0930859
0.0903086
0.0867835
0.0859621
0.0841479
0.0825826
0.0793549
0.0769506
0.0761599
0.0755573
0.0747918
0.0737958
0.0729993
0.0726145
0.0727232
0.072856
0.0723605
0.0712258
0.0698325
0.0687334
0.0684553
0.0686842
0.0692128
0.0699177
0.0708611
0.0721868
0.073809
0.0755819
0.0774354
0.0794352
0.0864512
0.0908815
0.0948073
0.0985225
0.101883
0.104426
0.105884
0.105907
0.104326
0.100912
0.0968768
0.093262
0.090657
0.0889497
0.0877335
0.0862744
0.0843742
0.0824478
0.0810727
0.0800759
0.0789684
0.0773972
0.0752864
0.0727905
0.0703184
0.0680825
0.0660697
0.0642156
0.0624945
0.061016
0.0604215
0.0604439
0.0610673
0.0624108
0.064492
0.0671255
0.070112
0.073425
0.0771713
0.0815035
0.0843963
0.0877749
0.0913282
0.0949079
0.0977835
0.099099
0.0992234
0.0989542
0.0984327
0.0972763
0.09486
0.0910231
0.0863747
0.0818945
0.077973
0.0745834
0.0717853
0.0696318
0.0679098
0.0663437
0.0648782
0.0636641
0.062822
0.0624069
0.0622261
0.0621567
0.0618992
0.0614534
0.0607726
0.0600809
0.0596055
0.0595248
0.060074
0.0613107
0.0631694
0.0655925
0.0684944
0.0718962
0.0761457
0.080443
0.0781545
0.0814484
0.0853253
0.0896409
0.0931494
0.0946046
0.0947594
0.0944792
0.0937305
0.0920926
0.0888894
0.0844014
0.0797316
0.0755606
0.0720872
0.0694093
0.0678174
0.0672038
0.0669125
0.066559
0.0659237
0.0651303
0.0643274
0.0635389
0.0627918
0.0620817
0.0612637
0.0602448
0.0590067
0.057749
0.0567738
0.0562741
0.0564048
0.0573169
0.0589054
0.0610083
0.0635942
0.066777
0.070594
0.0744142
-1.40429e-05
-2.26219e-05
-5.30869e-05
-3.92607e-05
-6.38513e-05
-4.08373e-11
-4.99885e-06
-1.82059e-05
-3.06095e-05
4.72294e-06
3.91854e-06
2.39802e-06
1.24543e-06
-7.41294e-06
-1.58067e-05
-2.01826e-05
-8.86651e-06
-2.0991e-05
-2.20956e-05
-2.40432e-05
-2.7137e-05
-2.63082e-05
-2.63049e-05
-2.66731e-05
-2.59715e-05
-2.4396e-05
-2.22355e-05
-1.95832e-05
-1.73336e-05
-1.47428e-05
-1.07505e-05
-5.98911e-06
-2.12794e-06
-2.98765e-06
-5.24289e-06
-7.3275e-06
-9.26712e-06
-1.16664e-05
-1.24029e-05
-1.63781e-05
-1.02199e-05
-3.37611e-06
-6.73297e-07
-2.96214e-07
1.18148e-06
4.13807e-07
-7.35491e-08
4.41504e-07
2.58948e-06
3.08201e-06
-6.35248e-06
-1.41338e-05
9.02549e-07
1.19127e-05
8.21119e-05
5.62044e-05
8.86703e-05
6.06975e-07
-9.33431e-07
-1.48865e-06
-1.01688e-06
-3.81346e-07
-2.8959e-07
-6.10691e-07
-6.08837e-07
-3.10061e-07
-3.29816e-08
9.62691e-08
1.43595e-07
1.27366e-07
4.68381e-08
3.24661e-08
-2.38989e-07
-1.0707e-06
-3.51813e-06
-6.58935e-06
-9.22335e-06
-1.08933e-05
-1.23114e-05
-1.19554e-05
-6.92599e-06
-8.80232e-06
-1.22019e-05
-1.57015e-05
-2.21675e-05
-3.07294e-05
-3.28954e-05
-2.81201e-05
-2.5341e-05
-8.6575e-06
-4.41794e-06
4.56127e-08
3.80121e-06
8.97273e-06
1.6518e-05
1.87581e-05
1.76306e-05
1.65547e-05
1.85484e-05
2.47169e-05
2.90979e-05
2.85164e-05
2.22478e-05
1.3201e-05
5.60783e-06
8.00019e-08
-4.13578e-06
-5.8324e-06
-7.13369e-06
-7.37059e-06
-7.90271e-06
-7.66054e-06
-7.19812e-06
-7.01701e-06
-6.77963e-06
-6.67039e-06
-6.63232e-06
-6.56725e-06
-6.76719e-06
-7.37548e-06
-9.33418e-06
-1.08902e-05
-1.17558e-05
-1.22722e-05
-1.18269e-05
-1.06435e-05
-8.75791e-06
-7.51128e-06
-7.9554e-06
-7.93547e-06
-6.9899e-06
-5.63807e-06
-3.97447e-06
-4.04499e-06
-4.6174e-06
-5.38197e-06
-7.06248e-06
-8.19054e-06
-9.14894e-06
-9.81622e-06
-9.78511e-06
-9.20577e-06
-8.98714e-06
-9.18113e-06
-9.67286e-06
-1.02431e-05
-1.0628e-05
-1.09479e-05
-1.15242e-05
-1.23141e-05
-1.29091e-05
-1.34278e-05
-1.37592e-05
-1.37606e-05
-1.31731e-05
-1.24222e-05
-1.16849e-05
-1.14778e-05
-1.08779e-05
-1.16456e-05
-8.06504e-06
-9.03593e-06
-1.01843e-05
-1.07671e-05
-1.12313e-05
-1.18135e-05
-1.18606e-05
-1.20665e-05
-1.17257e-05
-1.03462e-05
-8.78806e-06
-8.17646e-06
-9.11877e-06
-1.17923e-05
-1.49511e-05
-1.80681e-05
-2.01765e-05
-2.12743e-05
-2.14216e-05
-2.05682e-05
-1.9179e-05
-1.75081e-05
-1.58542e-05
-1.42607e-05
-1.31313e-05
-1.23797e-05
-1.15908e-05
-1.09613e-05
-1.03455e-05
-1.00897e-05
-9.90828e-06
-9.65386e-06
-9.50461e-06
-9.42308e-06
-9.46986e-06
-9.44117e-06
-9.62651e-06
-9.75923e-06
-9.69068e-06
-1.01828e-05
-5.20848e-07
-1.7407e-06
-4.20155e-06
-9.78824e-06
-1.76162e-05
-9.65987e-08
1.06069e-06
3.63672e-07
-1.98298e-05
-1.94496e-06
1.49328e-05
-5.61639e-10
-4.24013e-08
2.50404e-08
3.48678e-08
3.12846e-08
3.20483e-08
9.36435e-09
3.52566e-09
5.868e-09
3.84926e-09
-1.24456e-09
-4.35214e-09
-4.55942e-10
-9.38211e-09
-1.55055e-09
-1.42514e-09
-2.06086e-09
6.95084e-09
2.36429e-08
2.8688e-08
1.13577e-08
1.0118e-08
-2.05988e-10
-1.65685e-09
-3.19121e-09
1.9609e-08
-1.25548e-08
-3.67167e-08
-3.11763e-08
-3.4516e-10
-2.61353e-09
-2.56712e-09
8.63688e-08
1.07416e-06
2.80284e-06
2.39427e-07
2.56088e-07
1.14929e-05
1.06063e-05
1.38071e-06
5.31091e-07
-2.39298e-07
-1.09863e-06
-1.61824e-06
-1.65003e-07
-2.20075e-07
-7.4228e-08
-3.73625e-08
-3.36467e-08
-3.44184e-08
-2.80736e-08
-2.22715e-08
-6.86784e-09
-3.37528e-09
-3.59315e-09
-4.69226e-09
-8.28057e-09
-7.08218e-09
-1.11262e-08
-1.21934e-08
-2.43952e-09
4.02336e-10
-5.50177e-10
-1.6666e-08
-2.2925e-08
-2.00542e-09
-5.43965e-10
-1.63777e-09
-1.22466e-09
-6.1365e-12
-4.35495e-10
5.01861e-10
3.1108e-10
-1.55839e-09
4.21291e-10
-7.08056e-08
-2.73182e-08
1.69326e-07
3.25847e-07
4.4507e-07
6.64066e-07
1.29587e-06
2.12136e-06
3.47728e-06
4.25397e-06
3.87719e-06
2.644e-06
3.99391e-08
-4.85657e-07
1.75753e-07
7.89523e-07
8.36361e-07
4.225e-07
2.1401e-07
1.27868e-07
-1.46931e-07
-1.66033e-07
-1.36814e-07
-7.9966e-08
-4.39994e-08
-1.14204e-08
-7.32804e-10
-2.26764e-08
-3.43135e-08
-3.45386e-08
-2.90049e-08
-1.84657e-08
-9.59654e-09
-3.89476e-09
-2.43215e-10
-7.77591e-09
3.12902e-08
1.19863e-09
-1.11479e-08
-1.75172e-08
-1.49195e-08
2.1883e-08
1.04023e-07
2.95473e-07
6.10496e-07
5.26575e-07
4.61759e-07
4.91513e-07
4.49505e-07
3.28047e-07
2.43045e-07
1.93077e-07
2.63322e-07
4.26268e-07
4.99248e-07
4.52352e-07
3.28869e-07
1.64818e-07
6.72585e-08
2.04212e-08
-4.225e-08
-1.25999e-07
-1.89695e-07
-1.9395e-07
-1.59491e-07
-1.25371e-07
-7.56531e-08
-4.13232e-08
-1.41296e-08
-4.076e-09
-4.69261e-10
-2.42412e-09
-2.06038e-08
-1.67888e-08
-1.03499e-08
-8.9336e-09
-9.48188e-09
-1.01725e-08
-1.3744e-08
-1.59249e-08
-2.42146e-08
7.07559e-09
1.51333e-07
4.22048e-07
8.14161e-07
6.28023e-07
2.64281e-07
7.02198e-08
1.1155e-10
-4.78903e-08
-7.56454e-08
-7.86882e-08
-6.7256e-08
-5.7507e-08
-4.92523e-08
-4.11567e-08
-3.09782e-08
-4.74282e-08
-5.13139e-08
-9.63036e-08
-1.14372e-07
-1.11595e-07
-9.66185e-08
-8.64696e-08
-7.96008e-08
-5.41044e-08
-3.18822e-08
-1.63522e-08
-1.74246e-08
-6.90617e-09
-4.61185e-09
-6.26675e-09
-9.72286e-08
-3.02771e-08
4.16652e-08
-3.97778e-08
1.80031e-06
2.88704e-06
3.41295e-06
1.34077e-05
1.25877e-06
4.25311e-08
3.9508e-08
5.51718e-08
4.36663e-08
2.22076e-08
2.85075e-08
1.28722e-07
1.18544e-07
8.00593e-08
7.40249e-08
1.70294e-07
1.43598e-07
4.64464e-08
2.89501e-08
2.27927e-08
4.17041e-08
-3.52305e-27
-4.61349e-08
-3.5635e-09
2.05007e-08
5.67455e-08
6.22947e-08
6.67281e-08
7.53922e-08
8.17086e-07
1.45705e-06
1.45432e-06
6.93216e-07
9.38016e-07
3.92587e-06
3.92044e-06
1.92312e-06
1.11728e-07
1.80186e-08
-7.04104e-10
1.50575e-07
5.96133e-06
6.59305e-06
2.46105e-06
5.61156e-08
1.38794e-08
2.63304e-07
6.82492e-07
8.87018e-08
1.1503e-07
8.62297e-08
1.16087e-07
8.2222e-08
-2.55708e-08
2.03328e-07
3.38877e-07
6.9719e-07
7.20043e-07
5.27355e-07
3.604e-07
2.33105e-07
9.58148e-08
2.83953e-08
6.03568e-09
1.56547e-09
2.38622e-10
1.40762e-11
4.0716e-12
3.67929e-12
4.09867e-12
9.12563e-09
2.86443e-08
2.08506e-08
7.99893e-09
4.33259e-08
2.37766e-07
2.06712e-07
1.4282e-07
6.78799e-10
3.27906e-10
1.69005e-10
1.55163e-08
2.51351e-09
6.10334e-10
1.00222e-09
1.24923e-09
4.98674e-08
1.21003e-07
1.22717e-07
1.46772e-07
2.34949e-07
3.19116e-07
3.74301e-07
2.69256e-07
2.62329e-07
3.1496e-07
4.38964e-07
6.26267e-07
5.81726e-07
4.68475e-07
3.15693e-07
1.07869e-07
2.48443e-08
1.81038e-09
-4.28645e-09
-2.33058e-09
-4.36147e-10
-1.87421e-10
-1.70797e-11
-1.97591e-12
1.17996e-12
-2.57324e-16
-2.42807e-13
-1.21751e-12
-2.2389e-12
6.861e-30
-6.11039e-15
6.22009e-10
5.90134e-11
1.41448e-10
1.1434e-10
1.00735e-10
1.32305e-10
1.61758e-10
2.63658e-09
2.47829e-08
7.68592e-08
1.76711e-07
4.05799e-07
2.59036e-07
2.1313e-07
1.81074e-07
1.83386e-07
9.93346e-08
4.22032e-08
3.01098e-08
8.36637e-08
4.40044e-07
6.28304e-07
5.11193e-07
2.75561e-07
5.15743e-08
2.74026e-09
1.17554e-10
-9.91235e-10
-1.29975e-09
-1.01332e-09
-4.67297e-10
-1.03227e-10
-2.16767e-11
1.14945e-11
8.13609e-12
7.52646e-12
8.39439e-11
2.89234e-10
2.35966e-10
1.95794e-11
2.91358e-11
8.68196e-11
1.69719e-10
2.04124e-10
2.74781e-10
-9.89727e-12
-2.3225e-10
8.50979e-10
3.9174e-09
8.73571e-08
3.02781e-07
7.75646e-07
4.75547e-07
1.82988e-07
7.25435e-08
4.7052e-08
3.17335e-08
2.41366e-08
1.66172e-08
1.25389e-08
1.73098e-08
1.98561e-08
1.48801e-08
6.80126e-09
1.3458e-09
1.69141e-10
-3.07831e-10
-6.04743e-10
-4.76684e-10
-3.11613e-10
-1.76931e-10
-7.70094e-11
-2.29493e-11
1.4113e-11
7.16918e-11
4.23997e-11
2.72618e-11
5.52241e-11
7.23907e-11
6.30002e-11
6.0429e-11
3.65958e-07
1.52119e-07
2.06855e-07
1.54025e-06
2.02537e-06
9.40799e-06
1.10543e-06
2.2985e-08
2.12922e-08
5.18093e-08
4.11017e-08
3.61241e-08
3.61228e-08
3.65902e-08
4.53351e-08
1.82784e-07
6.06918e-07
3.44468e-07
1.30797e-07
1.27171e-07
1.04668e-07
4.39849e-08
6.55025e-10
-1.76966e-08
-4.58244e-08
-4.1843e-08
-2.54028e-08
-8.64444e-09
-9.51903e-28
3.11392e-09
2.15262e-08
8.30045e-08
2.40565e-07
2.50169e-07
1.65271e-07
1.82722e-07
3.45245e-07
1.77253e-06
1.91137e-06
5.08506e-07
6.12472e-07
1.39125e-07
9.24917e-08
1.50698e-06
1.57772e-06
6.01886e-07
3.53223e-08
1.84281e-08
2.12919e-08
8.61419e-08
1.53086e-07
3.39419e-08
3.03894e-08
3.28678e-08
6.18272e-08
2.38919e-07
3.04024e-07
2.17988e-07
1.73479e-07
1.68354e-07
1.05459e-07
8.33145e-08
5.80245e-08
8.35316e-09
4.46508e-10
2.41072e-09
2.70758e-09
6.71778e-10
1.7718e-10
7.10543e-11
9.34637e-12
8.2332e-12
5.02403e-09
6.38892e-09
5.65358e-09
7.44677e-09
6.65763e-09
5.02992e-08
1.82823e-08
5.30218e-07
2.4651e-08
1.00175e-08
4.94378e-09
2.95562e-08
1.41758e-08
2.52111e-09
8.21039e-09
1.66712e-08
4.5979e-08
1.19903e-07
1.54791e-07
1.09427e-07
9.88677e-08
7.59357e-08
1.35364e-07
2.14765e-07
1.45299e-07
1.22145e-07
1.61807e-07
1.71133e-07
1.20191e-07
8.54191e-08
4.69332e-08
1.24583e-08
2.48878e-09
1.66257e-09
4.42884e-10
1.0399e-10
5.45981e-11
3.18092e-11
9.44471e-12
6.16979e-12
1.50603e-12
-4.7591e-14
8.40161e-13
4.93329e-11
4.79218e-10
3.3923e-10
7.3152e-12
1.15309e-08
3.4852e-09
5.78992e-09
4.49658e-09
1.27547e-09
5.2561e-10
4.56449e-10
2.49457e-09
1.43697e-08
1.05861e-07
4.95316e-07
7.40576e-07
2.4371e-07
1.49069e-07
1.63182e-07
2.26108e-07
1.78573e-07
1.19558e-07
1.16774e-07
1.70021e-07
1.99249e-07
1.76503e-07
1.23167e-07
6.24086e-08
2.04624e-08
3.85142e-09
6.90325e-10
9.85206e-11
3.10717e-11
1.87245e-11
1.0759e-11
7.95588e-12
7.61706e-12
7.14152e-12
7.57836e-12
1.10121e-11
1.42682e-11
1.4913e-11
2.26254e-11
1.51679e-10
7.06033e-10
4.0625e-09
6.99947e-09
6.99268e-09
6.63011e-09
2.72752e-09
5.73148e-10
8.54386e-10
1.90347e-09
6.89748e-08
4.34009e-07
1.40665e-06
7.57789e-07
9.5947e-08
5.15354e-08
4.29646e-08
2.7168e-08
1.85589e-08
1.17117e-08
6.68195e-09
1.00888e-08
9.40715e-09
5.90661e-09
2.68955e-09
6.80887e-10
4.40201e-11
3.41053e-11
3.03394e-11
7.49223e-11
7.50016e-11
4.06359e-11
2.62422e-11
1.92612e-11
1.19161e-11
8.38894e-12
1.00653e-11
1.64107e-11
3.44177e-11
5.69523e-11
7.40301e-11
5.13032e-10
1.64454e-06
2.82735e-07
4.90341e-08
1.22819e-07
2.43502e-07
9.67547e-07
2.21217e-07
2.7772e-08
2.61174e-08
4.84166e-08
7.19055e-07
4.27008e-07
1.2754e-07
4.17365e-08
4.58452e-08
3.53222e-07
5.72189e-07
5.35816e-07
5.32202e-07
5.33501e-07
5.33083e-07
5.08821e-07
1.60534e-07
7.65468e-08
1.1275e-07
1.256e-07
8.23007e-08
7.67874e-09
3.28392e-10
3.44971e-09
4.39803e-09
3.69426e-09
2.74188e-09
2.19511e-09
9.81857e-10
2.61131e-10
2.24033e-10
6.77765e-11
1.51836e-06
1.69895e-06
1.14983e-06
3.3096e-07
7.73468e-09
9.6959e-08
1.41026e-07
1.07308e-06
1.51063e-06
5.50413e-07
2.12348e-08
4.14946e-07
7.11193e-07
4.08979e-07
6.71057e-08
4.61173e-08
5.36325e-08
9.47969e-08
2.75462e-07
4.38976e-07
5.07762e-07
5.3203e-07
5.33096e-07
4.53624e-07
8.62408e-08
9.68364e-09
3.36521e-08
7.28975e-08
4.9117e-08
6.89269e-09
1.77549e-10
4.08935e-09
2.02315e-08
2.10905e-08
1.54805e-08
4.7108e-09
8.50359e-10
4.25719e-10
3.78009e-10
9.56044e-11
2.46733e-10
8.10835e-07
1.63329e-08
1.53215e-08
3.75847e-09
1.5715e-09
9.96785e-08
6.79317e-07
1.76944e-06
1.91738e-06
7.44626e-07
1.43278e-07
1.42504e-07
1.75024e-07
1.36931e-07
5.84066e-08
7.97457e-08
1.31292e-07
5.48439e-08
3.57381e-08
6.6432e-08
2.98178e-07
3.4195e-07
1.92967e-07
2.846e-08
1.30586e-09
3.23487e-09
3.29784e-09
1.7481e-09
9.8056e-10
3.34358e-10
2.09468e-11
1.00317e-11
8.3648e-12
2.20958e-09
3.76282e-09
2.91793e-09
1.68039e-09
7.68456e-10
5.15984e-11
2.98932e-11
4.02151e-09
2.48134e-09
4.62262e-09
3.14291e-09
1.32635e-09
5.94561e-09
3.7391e-08
2.1353e-08
1.17126e-08
4.64669e-08
1.42833e-06
1.6305e-06
5.6136e-07
1.45667e-07
2.18786e-07
2.54147e-07
1.37424e-07
2.44227e-08
8.8397e-09
7.81448e-09
3.48101e-08
3.02164e-08
1.52141e-08
7.22561e-09
1.92812e-09
1.70401e-10
3.46857e-11
4.57449e-11
3.61124e-11
2.47851e-11
1.80357e-11
8.78783e-12
8.01581e-12
7.5399e-12
7.7984e-12
1.00075e-11
3.56528e-11
1.8728e-11
6.71245e-12
3.04128e-11
3.00992e-10
2.54531e-09
6.95528e-09
7.00616e-09
4.74325e-09
1.2907e-09
3.33018e-10
1.2282e-08
1.30648e-08
1.50352e-09
4.26536e-08
1.48329e-06
1.649e-06
1.62964e-06
5.55015e-07
8.5157e-08
6.09784e-08
3.08461e-08
5.43357e-09
3.75857e-09
1.95815e-09
1.05543e-09
4.83012e-10
2.64289e-10
7.38808e-11
3.42468e-11
3.05885e-11
3.06042e-11
4.88516e-11
8.25938e-11
4.0381e-11
2.11644e-11
8.0746e-12
7.89082e-12
1.02317e-11
1.20929e-11
2.41749e-11
1.50183e-11
2.32839e-12
1.78476e-12
1.36882e-10
1.7259e-06
9.28102e-07
2.40232e-08
1.05765e-08
1.18506e-07
2.17937e-07
4.89119e-07
4.05154e-07
3.52959e-08
3.51699e-08
3.93435e-08
7.71005e-06
8.94977e-06
9.05687e-06
3.77573e-06
2.26339e-07
1.72942e-07
1.6531e-07
1.46265e-07
3.45215e-07
5.26532e-07
5.05843e-07
4.68563e-07
4.85457e-07
5.34953e-07
5.55956e-07
5.51046e-07
3.08774e-07
6.50469e-08
1.12965e-07
4.15118e-07
2.58429e-07
1.2311e-08
1.01288e-09
4.38573e-10
2.93511e-10
2.03272e-10
2.14274e-10
1.07481e-06
1.72926e-06
1.18405e-06
1.11121e-07
6.56967e-09
3.23372e-09
7.71519e-07
4.18117e-06
3.80145e-06
5.78897e-07
3.92848e-08
3.93441e-08
4.87968e-08
4.94221e-06
8.76727e-06
6.27306e-06
3.45229e-06
3.38752e-06
2.29809e-06
5.27816e-07
2.13828e-07
2.06821e-07
1.69907e-07
1.20778e-07
6.00696e-08
1.62121e-08
4.4186e-10
8.92344e-11
1.14306e-10
6.96373e-11
4.96962e-11
-2.16763e-12
4.78826e-07
5.73633e-07
1.30391e-07
3.24166e-09
2.66728e-09
1.08798e-09
2.7145e-10
2.56484e-10
3.88877e-07
1.69895e-06
8.43806e-08
4.12925e-08
3.02768e-09
2.13884e-09
7.57637e-07
1.08648e-05
1.24847e-05
4.31844e-06
5.39163e-07
1.25961e-07
9.60751e-08
1.18398e-07
1.35057e-06
5.30715e-06
4.37855e-06
4.25713e-06
3.62084e-06
1.47251e-06
1.50669e-07
2.84422e-08
1.05068e-08
3.71028e-09
1.59433e-09
1.00248e-09
4.56986e-10
1.12581e-10
1.0997e-10
1.42526e-10
1.49208e-10
4.78019e-11
2.20809e-11
2.94279e-11
3.40704e-08
4.71609e-08