/*--------------------------------*- C++ -*----------------------------------*\
| =========                 |                                                 |
| \\      /  F ield         | OpenFOAM: The Open Source CFD Toolbox           |
|  \\    /   O peration     | Version:  2112                                  |
|   \\  /    A nd           | Website:  www.openfoam.com                      |
|    \\/     M anipulation  |                                                 |
\*---------------------------------------------------------------------------*/
FoamFile
{
    version     2.0;
    format      ascii;
    arch        "LSB;label=32;scalar=64";
    class       volScalarField;
    location    "1";
    object      epsilon;
}
// * * * * * * * * * * * * * * * * * * * * * * * * * * * * * * * * * * * * * //

dimensions      [0 2 -3 0 0 0 0];

internalField   nonuniform List<scalar> 
27200
(
0.00158244
0.00160003
0.00169784
0.00172612
0.00172027
0.0017581
0.00179898
0.00184048
0.00185612
0.00183631
0.00175185
0.00166532
0.00158075
0.00149725
0.0014416
0.00136712
0.00123148
0.00109137
0.00103848
0.00101217
0.00100731
0.00106828
0.0011375
0.00119494
0.0012425
0.00128198
0.00131504
0.00134296
0.00136668
0.00138685
0.00140386
0.00141803
0.00142962
0.00143903
0.00144703
0.00145595
0.00147177
0.00151162
0.00155655
0.00158649
0.00206732
0.00206424
0.00206044
0.00205736
0.00205342
0.00205053
0.0020476
0.00204536
0.00204259
0.00203938
0.00203546
0.00203115
0.00202696
0.0020238
0.00202222
0.00202389
0.00203053
0.00204716
0.00203264
0.00198758
0.00197616
0.00199181
0.002005
0.00201664
0.00202713
0.00203673
0.00204545
0.00205326
0.00206001
0.00206552
0.00206966
0.00207239
0.00207387
0.00207442
0.00207435
0.00207391
0.00207324
0.00207244
0.00207133
0.00206969
0.00271454
0.00271126
0.00270754
0.00270382
0.00270043
0.00269756
0.00269512
0.00269298
0.00269093
0.00268884
0.00268661
0.00268435
0.00268235
0.00268105
0.00268076
0.00268161
0.00268342
0.00268591
0.00268944
0.00269309
0.00269511
0.00269754
0.00270024
0.00270331
0.00270682
0.00271069
0.00271462
0.00271829
0.00272131
0.00272343
0.00272447
0.00272451
0.00272383
0.00272287
0.00272197
0.00272128
0.00272069
0.00271998
0.00271886
0.00271709
0.00318666
0.00318427
0.00318128
0.00317834
0.00317604
0.00317469
0.00317419
0.00317418
0.00317415
0.00317366
0.00317245
0.00317062
0.00316863
0.00316713
0.00316673
0.00316771
0.00316991
0.00317289
0.00317607
0.00317885
0.00318084
0.003182
0.00318263
0.00318329
0.00318446
0.00318635
0.00318879
0.00319135
0.00319345
0.0031946
0.00319451
0.00319325
0.00319128
0.00318927
0.00318783
0.00318726
0.00318747
0.00318804
0.00318841
0.00318805
0.00353599
0.00353371
0.00352959
0.00352488
0.00352113
0.00351958
0.0035206
0.0035235
0.00352689
0.00352931
0.00352972
0.0035279
0.00352445
0.00352065
0.00351807
0.00351791
0.00352054
0.00352517
0.00353038
0.0035346
0.00353671
0.00353639
0.00353414
0.0035312
0.00352904
0.00352887
0.00353104
0.00353482
0.00353882
0.00354156
0.00354201
0.00353994
0.00353596
0.00353135
0.00352769
0.0035262
0.00352728
0.0035302
0.00353356
0.00353584
0.00400773
0.00402677
0.00404414
0.00405281
0.00406006
0.00406879
0.00408367
0.00410075
0.00411848
0.00413186
0.0041378
0.0041356
0.00412553
0.00410729
0.00408351
0.00405291
0.00401874
0.00398547
0.00395842
0.00393779
0.00392438
0.00391811
0.00391584
0.00391577
0.00391708
0.00392005
0.00392524
0.00393245
0.00394089
0.00394897
0.00395479
0.00395707
0.00395519
0.00394977
0.00394245
0.00393662
0.00393695
0.00394677
0.00396495
0.00398737
0.00254441
0.00254087
0.0025376
0.00253428
0.0025306
0.00252648
0.00252185
0.00251674
0.0025113
0.00250595
0.00250136
0.00249803
0.00249604
0.00249511
0.00249483
0.00249484
0.00249477
0.00249418
0.0024919
0.00248808
0.00248857
0.00249268
0.00249936
0.00250752
0.00251613
0.00252437
0.00253159
0.00253746
0.00254195
0.00254541
0.00254841
0.00255138
0.00255429
0.00255675
0.0025583
0.00255863
0.00255766
0.00255544
0.00255219
0.00254832
0.00278424
0.00278271
0.00278282
0.00278346
0.00278352
0.00278215
0.00277888
0.00277377
0.00276754
0.00276156
0.00275745
0.00275609
0.00275708
0.00275937
0.00276181
0.0027635
0.00276388
0.00276292
0.00276122
0.00275995
0.00276064
0.00276407
0.00276974
0.0027764
0.00278274
0.00278769
0.00279054
0.00279113
0.00279003
0.00278849
0.00278813
0.00278984
0.00279319
0.00279703
0.00280013
0.00280155
0.00280072
0.00279763
0.00279292
0.00278793
0.0029342
0.00293489
0.00293772
0.0029409
0.00294293
0.00294287
0.00294038
0.00293571
0.00292981
0.0029244
0.0029216
0.00292229
0.00292546
0.00292937
0.00293253
0.00293398
0.00293334
0.00293078
0.00292716
0.00292411
0.00292369
0.00292671
0.00293211
0.00293807
0.00294301
0.00294589
0.00294624
0.0029442
0.00294062
0.0029372
0.00293609
0.00293817
0.00294243
0.00294706
0.00295052
0.00295181
0.0029505
0.00294682
0.00294166
0.00293675
0.00298147
0.00298356
0.00298684
0.00298945
0.00299031
0.00298921
0.00298652
0.00298286
0.00297893
0.00297587
0.00297523
0.0029774
0.00298091
0.00298393
0.00298537
0.00298501
0.0029832
0.00298053
0.00297769
0.00297577
0.00297631
0.00297964
0.0029843
0.00298839
0.00299078
0.00299118
0.00298991
0.0029875
0.00298467
0.00298254
0.00298269
0.0029855
0.00298953
0.0029929
0.0029945
0.00299407
0.00299193
0.00298867
0.00298502
0.0029821
0.00622647
0.00623343
0.0062346
0.00623119
0.00622657
0.00622507
0.00622963
0.00623945
0.00625172
0.0062624
0.00626755
0.00626524
0.00625552
0.00624044
0.00622275
0.00620573
0.00619237
0.00618379
0.00617996
0.00617924
0.00617919
0.00617838
0.00617637
0.00617437
0.00617398
0.00617734
0.00618582
0.0061983
0.00621232
0.00622442
0.00623096
0.00623022
0.0062224
0.0062099
0.00619612
0.00618562
0.00618244
0.0061877
0.00619965
0.00621419
0.00331449
0.00331265
0.0033137
0.00331543
0.0033158
0.00331349
0.00330797
0.00329953
0.00328948
0.00328023
0.00327466
0.00327393
0.00327682
0.00328109
0.0032846
0.0032859
0.00328434
0.00328018
0.00327476
0.00327065
0.00327098
0.00327691
0.00328711
0.00329918
0.00331069
0.0033198
0.0033254
0.00332725
0.00332632
0.00332483
0.00332559
0.00332977
0.00333623
0.00334275
0.00334722
0.00334824
0.00334525
0.00333856
0.0033295
0.00332052
0.00329585
0.00329635
0.00330153
0.00330783
0.00331217
0.0033124
0.00330752
0.00329775
0.00328497
0.00327293
0.0032666
0.00326782
0.00327441
0.00328282
0.00328994
0.0032936
0.0032927
0.00328739
0.00327942
0.00327239
0.00327115
0.00327744
0.003289
0.00330217
0.00331366
0.00332105
0.00332301
0.00331953
0.00331226
0.00330487
0.00330239
0.00330674
0.00331571
0.00332564
0.0033333
0.00333641
0.00333383
0.00332574
0.003314
0.00330237
0.00332177
0.00332481
0.00333295
0.00334181
0.00334807
0.00334963
0.00334558
0.00333618
0.00332332
0.00331106
0.00330566
0.00330907
0.00331797
0.00332799
0.00333581
0.00333933
0.00333754
0.00333067
0.0033205
0.00331101
0.00330838
0.00331453
0.00332612
0.00333872
0.00334888
0.00335438
0.00335408
0.00334811
0.00333821
0.00332845
0.00332512
0.00333025
0.0033405
0.00335142
0.00335959
0.00336283
0.00336011
0.00335167
0.00333936
0.0033273
0.00328721
0.00329117
0.0032989
0.00330635
0.00331095
0.00331152
0.00330782
0.00330038
0.0032905
0.00328118
0.00327793
0.00328221
0.00329047
0.00329865
0.00330418
0.00330583
0.00330336
0.00329728
0.00328886
0.00328108
0.0032794
0.00328527
0.00329512
0.00330484
0.0033118
0.00331468
0.00331316
0.00330768
0.00329949
0.00329159
0.00328951
0.00329476
0.00330378
0.00331246
0.0033182
0.00331972
0.00331674
0.00330975
0.00330006
0.00329071
0.00854984
0.00854612
0.00853332
0.00851685
0.00850272
0.00849668
0.00850187
0.00851631
0.00853466
0.0085497
0.00855479
0.00854769
0.00853063
0.00850927
0.0084895
0.008477
0.00847535
0.00848369
0.00849803
0.00851218
0.0085199
0.00851898
0.00851141
0.00850241
0.00849718
0.00850042
0.00851439
0.00853654
0.00856118
0.00858082
0.00858856
0.00858218
0.00856419
0.0085408
0.00851873
0.00850453
0.00850247
0.00851175
0.0085276
0.00854272
0.00417359
0.00417921
0.00419309
0.00420772
0.00421707
0.00421738
0.00420735
0.00418822
0.00416442
0.00414394
0.00413652
0.00414387
0.00415999
0.00417731
0.00418982
0.00419381
0.00418802
0.00417376
0.00415546
0.00414096
0.00413979
0.00415363
0.00417662
0.00420123
0.00422121
0.0042324
0.00423291
0.00422342
0.00420788
0.00419407
0.00419174
0.00420277
0.0042213
0.00423978
0.00425213
0.00425459
0.00424591
0.0042274
0.00420353
0.00418234
0.00393606
0.00394548
0.00396496
0.00398495
0.00399845
0.00400118
0.0039913
0.00396963
0.00394073
0.00391459
0.00390585
0.00391645
0.00393775
0.0039602
0.00397684
0.00398339
0.00397791
0.00396114
0.00393744
0.00391659
0.0039131
0.0039289
0.00395537
0.00398288
0.00400421
0.00401475
0.00401223
0.00399712
0.00397372
0.00395196
0.00394673
0.00396016
0.00398357
0.00400722
0.00402393
0.00402927
0.00402124
0.00400064
0.00397207
0.00394562
0.00387426
0.003886
0.00390747
0.00392868
0.00394321
0.00394735
0.00393927
0.00391928
0.0038909
0.00386364
0.00385542
0.00386797
0.00389065
0.0039135
0.0039301
0.00393671
0.00393145
0.00391456
0.00388943
0.00386543
0.00386042
0.00387616
0.00390202
0.00392795
0.00394737
0.00395635
0.00395281
0.00393683
0.00391177
0.0038871
0.00388096
0.00389523
0.00391922
0.00394281
0.00395946
0.00396529
0.0039584
0.00393904
0.00391074
0.00388313
0.00379482
0.00380531
0.00382337
0.00384047
0.00385192
0.00385528
0.00384946
0.00383452
0.00381233
0.00378954
0.00378282
0.003794
0.00381299
0.00383126
0.00384408
0.003849
0.00384489
0.00383181
0.0038116
0.00379083
0.00378615
0.00379938
0.00382042
0.00384068
0.00385535
0.00386184
0.00385892
0.00384651
0.00382642
0.00380526
0.00379983
0.00381205
0.00383178
0.00385043
0.00386321
0.0038676
0.00386244
0.00384775
0.00382543
0.0038022
0.0111637
0.0111419
0.0111028
0.0110621
0.0110328
0.0110236
0.0110378
0.0110703
0.011109
0.0111388
0.0111457
0.0111258
0.011088
0.0110479
0.0110186
0.0110088
0.0110229
0.0110563
0.011098
0.011133
0.011147
0.0111358
0.0111082
0.0110798
0.0110632
0.0110664
0.0110924
0.0111354
0.0111827
0.0112184
0.0112279
0.0112073
0.0111661
0.0111204
0.0110842
0.0110671
0.0110735
0.0110994
0.0111332
0.0111595
0.0052225
0.00525269
0.00529816
0.00534059
0.00536644
0.0053678
0.00534231
0.0052938
0.00523456
0.00518784
0.00518457
0.00521739
0.00526582
0.00531158
0.00534128
0.00534714
0.00532696
0.00528461
0.0052322
0.00519256
0.00519614
0.00523572
0.00529124
0.00534451
0.00538176
0.00539456
0.00537988
0.00534086
0.00528928
0.00524821
0.00524886
0.00528437
0.00533442
0.00538046
0.0054088
0.00541152
0.00538637
0.00533735
0.00527686
0.00522825
0.00480249
0.00483835
0.00488939
0.00493577
0.00496438
0.00496783
0.00494328
0.00489335
0.00482873
0.00477428
0.00477117
0.0048088
0.00486217
0.00491153
0.00494385
0.00495176
0.00493236
0.00488811
0.00482942
0.0047808
0.00478326
0.00482637
0.00488532
0.00494023
0.00497765
0.00498973
0.0049731
0.00492987
0.00487043
0.00481963
0.00481935
0.00485935
0.00491447
0.00496452
0.00499612
0.00500167
0.00497823
0.00492842
0.00486307
0.00480727
0.00466254
0.00469812
0.00474611
0.0047883
0.00481444
0.0048191
0.00479978
0.00475751
0.00469911
0.00464474
0.00464164
0.00467856
0.0047283
0.00477269
0.0048015
0.00480928
0.00479349
0.00475506
0.00470066
0.00465018
0.00465081
0.00469142
0.00474488
0.00479288
0.00482495
0.00483533
0.00482121
0.0047833
0.00472819
0.004676
0.00467464
0.00471305
0.00476384
0.00480855
0.00483674
0.00484281
0.00482418
0.00478183
0.00472265
0.00466701
0.00452552
0.00455399
0.00459166
0.00462382
0.00464379
0.00464841
0.00463611
0.00460668
0.00456284
0.00451641
0.00451145
0.0045411
0.0045802
0.00461404
0.00463591
0.00464263
0.00463262
0.00460568
0.00456445
0.00452065
0.00451826
0.00455045
0.00459209
0.00462834
0.0046524
0.0046609
0.00465208
0.00462557
0.00458395
0.00453897
0.00453513
0.00456563
0.00460523
0.00463904
0.0046603
0.00466573
0.00465372
0.00462401
0.00457937
0.00453175
0.014463
0.0144104
0.0143088
0.0142038
0.0141277
0.0141006
0.0141315
0.0142118
0.0143145
0.0143996
0.0144305
0.0143849
0.0142898
0.0141903
0.0141189
0.0140959
0.0141313
0.0142175
0.0143279
0.0144222
0.0144622
0.014426
0.0143403
0.014251
0.0141904
0.0141781
0.0142228
0.0143153
0.0144277
0.0145187
0.0145507
0.0145021
0.0144001
0.0142912
0.0142084
0.0141727
0.0141946
0.0142663
0.0143613
0.0144392
0.0068624
0.00697178
0.00707978
0.00715343
0.00717825
0.00714999
0.0070706
0.00695322
0.00683082
0.00676145
0.00682334
0.00693645
0.00704833
0.00712624
0.00715598
0.00713354
0.00706109
0.00695177
0.00683813
0.0067773
0.0068464
0.00696645
0.00708596
0.00717199
0.00720963
0.00719383
0.00712564
0.00701739
0.0069015
0.00683591
0.00690003
0.00701491
0.00712778
0.00720493
0.00723159
0.00720349
0.00712286
0.00700318
0.00687771
0.0068046
0.00635751
0.00645727
0.00655283
0.00661322
0.00662972
0.00660081
0.00652934
0.00642881
0.00632724
0.00626902
0.00632593
0.00642822
0.00652678
0.00659087
0.00661192
0.00658846
0.00652332
0.00642982
0.00633553
0.00628433
0.00634727
0.00645542
0.00656015
0.00663034
0.00665678
0.00663727
0.006574
0.00647988
0.00638255
0.00632629
0.00638482
0.0064888
0.00658848
0.00665222
0.00667095
0.00664297
0.00657111
0.00646898
0.00636495
0.00630349
0.00615103
0.00623007
0.00630016
0.00633815
0.00634222
0.00631425
0.00625848
0.00618726
0.00612336
0.00608637
0.00612955
0.00621066
0.00628318
0.00632406
0.00633152
0.00630749
0.00625622
0.00619001
0.0061315
0.00609976
0.00614731
0.00623264
0.00630939
0.00635422
0.00636503
0.00634334
0.006293
0.00622604
0.00616494
0.0061291
0.00617308
0.00625496
0.00632773
0.00636778
0.00637313
0.00634556
0.00628922
0.00621649
0.0061502
0.00611022
0.00586381
0.00591804
0.00596334
0.00598471
0.00598327
0.00596216
0.00592547
0.00588167
0.00584736
0.00582402
0.00584922
0.00590529
0.00595267
0.00597634
0.0059774
0.00595903
0.00592536
0.00588496
0.00585447
0.00583496
0.00586356
0.00592264
0.00597286
0.0059991
0.00600231
0.00598545
0.0059524
0.0059115
0.00587917
0.00585653
0.00588222
0.00593845
0.00598542
0.00600795
0.00600709
0.00598593
0.00594851
0.00590328
0.00586685
0.00584087
0.0194812
0.019195
0.0188276
0.018513
0.018305
0.0182424
0.0183563
0.0186482
0.0190664
0.0194308
0.0194456
0.0191702
0.0188132
0.0185079
0.018308
0.018253
0.0183751
0.0186769
0.0191069
0.0194827
0.0195055
0.0192385
0.0188896
0.0185921
0.0184007
0.018354
0.0184827
0.0187875
0.019215
0.0195828
0.0195944
0.0193126
0.0189454
0.0186264
0.0184103
0.0183369
0.0184388
0.0187187
0.0191253
0.0194781
0.0105073
0.0105343
0.0106772
0.0107357
0.010675
0.0105284
0.0103515
0.0102302
0.0102768
0.0104429
0.0104709
0.0105021
0.0106492
0.0107128
0.0106584
0.0105196
0.0103522
0.0102423
0.010302
0.0104799
0.0105141
0.0105515
0.0107068
0.0107795
0.0107332
0.0105997
0.0104337
0.0103204
0.0103716
0.0105373
0.0105638
0.0105961
0.0107441
0.0108053
0.0107443
0.0105949
0.0104135
0.0102867
0.010327
0.0104858
0.0103319
0.0102443
0.0102805
0.0102226
0.0100791
0.00989713
0.00974409
0.00973791
0.0100209
0.0104266
0.0103053
0.0102204
0.0102597
0.0102063
0.0100684
0.00989332
0.0097486
0.00975248
0.0100473
0.0104644
0.0103482
0.0102683
0.0103138
0.0102662
0.0101328
0.00995983
0.00981423
0.00981379
0.0101
0.0105036
0.0103803
0.010296
0.0103352
0.0102787
0.0101347
0.00995053
0.0097939
0.009783
0.01006
0.0104578
0.010289
0.0100987
0.0100021
0.00982454
0.0096053
0.00939361
0.00925467
0.00931802
0.00977136
0.0104918
0.0102738
0.0100855
0.0099915
0.00981728
0.0096021
0.00939531
0.00926239
0.0093335
0.00979716
0.0105291
0.0103149
0.0101292
0.0100384
0.00986691
0.00965342
0.00944683
0.00931227
0.00937951
0.00983612
0.0105549
0.0103341
0.0101443
0.0100482
0.00986998
0.00964905
0.00943476
0.0092924
0.00935146
0.00979929
0.0105112
0.00958927
0.00941404
0.0092514
0.00903365
0.00880868
0.00861475
0.00849805
0.00856106
0.00902218
0.00979086
0.00958035
0.00940729
0.00924707
0.00903199
0.00881
0.00861946
0.0085069
0.00857547
0.00904488
0.00982425
0.00961645
0.00944489
0.00928611
0.00907195
0.00885023
0.00865914
0.00854491
0.00861032
0.00907414
0.0098432
0.00962934
0.00945364
0.00929012
0.00907069
0.00884351
0.00864692
0.00852707
0.0085863
0.00904252
0.00980353
0.028359
0.0265706
0.0250333
0.024047
0.0235779
0.0236345
0.0243182
0.0258187
0.0281752
0.0292511
0.028341
0.0265644
0.0250375
0.0240608
0.0236009
0.023667
0.0243614
0.025875
0.0282465
0.0293355
0.0284311
0.0266586
0.025135
0.0241625
0.0237074
0.0237774
0.0244729
0.0259822
0.0283432
0.0294185
0.0285016
0.0267131
0.0251725
0.0241789
0.0236977
0.023738
0.0244026
0.0258827
0.0282191
0.0292804
0.0217557
0.020621
0.019111
0.018066
0.0173757
0.0170664
0.017389
0.0188996
0.0222332
0.0229816
0.0217331
0.0206016
0.0190947
0.0180551
0.017372
0.017073
0.0174102
0.0189431
0.0223069
0.0230815
0.0218323
0.0206968
0.0191935
0.0181576
0.0174774
0.0171781
0.0175102
0.0190312
0.0223713
0.0231177
0.0218622
0.0207242
0.0192127
0.0181606
0.0174619
0.0171431
0.0174554
0.0189552
0.0222745
0.0230103
0.0241686
0.0221982
0.0200544
0.0183059
0.0171021
0.0164381
0.0165809
0.018308
0.0230667
0.0270593
0.0241786
0.0222005
0.020055
0.0183082
0.0171092
0.0164532
0.0166082
0.0183548
0.0231447
0.0271915
0.0242971
0.022307
0.0201536
0.0184023
0.0172
0.0165396
0.0166877
0.0184228
0.0231878
0.0271643
0.0242808
0.0222985
0.0201429
0.018384
0.0171712
0.0164987
0.0166327
0.0183495
0.0230915
0.0270385
0.0262478
0.0230298
0.0203994
0.0182559
0.0167217
0.0157859
0.0156793
0.0172723
0.0226021
0.0318561
0.0262781
0.0230475
0.0204139
0.0182703
0.0167385
0.0158078
0.0157101
0.01732
0.0226851
0.0320094
0.0264013
0.0231504
0.0205051
0.0183527
0.016814
0.0158765
0.0157712
0.0173701
0.022713
0.0319547
0.0263622
0.0231236
0.0204778
0.0183217
0.0167773
0.0158329
0.015718
0.0173014
0.0226144
0.0318093
0.0244677
0.0212694
0.0188317
0.0168241
0.0153499
0.0144031
0.0141326
0.0152406
0.0201828
0.0309572
0.024501
0.0212924
0.0188524
0.0168446
0.0153719
0.0144283
0.0141641
0.015285
0.0202589
0.0311181
0.0246226
0.0213896
0.0189358
0.0169174
0.0154361
0.0144848
0.0142125
0.0153234
0.0202774
0.031062
0.0245809
0.0213572
0.0189026
0.0168817
0.0153971
0.0144417
0.0141634
0.0152629
0.0201907
0.0309091
0.0394421
0.0251638
0.0260152
0.0265193
0.0269625
0.0276438
0.0288987
0.0309838
0.0332335
0.0372048
0.039431
0.0251662
0.0260374
0.0265583
0.0270131
0.0276976
0.0289554
0.0310333
0.033254
0.0372346
0.0395657
0.025259
0.0261359
0.0266565
0.0271082
0.0277907
0.029034
0.0310888
0.0332835
0.0372912
0.0396316
0.0252905
0.026146
0.0266424
0.0270653
0.0277206
0.0289401
0.0309841
0.0331968
0.0371994
0.0803739
0.0360285
0.0266525
0.0244014
0.0238758
0.0243302
0.0262752
0.0314301
0.0456427
0.0901291
0.0802381
0.0360105
0.0266498
0.0244058
0.0238879
0.0243546
0.0263195
0.0315073
0.0457752
0.0903942
0.0806062
0.0361853
0.0267837
0.024528
0.0240042
0.0244616
0.0264075
0.0315592
0.0457706
0.0905023
0.0807466
0.0361933
0.0267688
0.0244966
0.0239553
0.0243937
0.0263193
0.0314472
0.0456244
0.0902293
0.0750461
0.0396274
0.0301367
0.0263704
0.0246105
0.0241885
0.025698
0.0313461
0.0479969
0.0982303
0.0749214
0.03961
0.0301443
0.0263885
0.0246375
0.0242271
0.0257544
0.0314333
0.0481308
0.0985351
0.0752193
0.039771
0.0302671
0.026495
0.0247331
0.0243104
0.0258192
0.0314662
0.0481148
0.09854
0.0753345
0.0397652
0.0302331
0.0264468
0.0246725
0.0242366
0.0257295
0.0313532
0.0479712
0.0982557
0.0649285
0.0402314
0.0328062
0.0284142
0.0256735
0.024362
0.0251098
0.0303082
0.0474477
0.103776
0.0648757
0.0402379
0.0328325
0.0284483
0.025714
0.0244111
0.0251735
0.0303984
0.047576
0.104023
0.0650944
0.0403689
0.0329366
0.0285363
0.0257891
0.0244729
0.0252181
0.0304137
0.0475438
0.103993
0.0651402
0.0403429
0.032886
0.0284751
0.0257204
0.0243963
0.0251299
0.0303064
0.0474106
0.103749
0.066324
0.0443129
0.035767
0.0299828
0.0262181
0.024098
0.0239636
0.0280052
0.0447224
0.103911
0.066336
0.0443422
0.0358149
0.0300354
0.0262735
0.0241581
0.0240341
0.0280989
0.0448699
0.104183
0.0665366
0.0444679
0.0359186
0.0301195
0.0263405
0.0242092
0.0240679
0.0281068
0.0448297
0.104138
0.0665147
0.0444178
0.0358441
0.0300392
0.0262588
0.0241256
0.0239781
0.0280021
0.0446905
0.10388
0.0333695
0.0241315
0.0258286
0.0269614
0.027806
0.0285487
0.0292238
0.0293752
0.0277465
0.0299768
0.0333703
0.0241448
0.0258566
0.0270005
0.0278524
0.028598
0.0292719
0.0294106
0.0277378
0.0299503
0.0334743
0.0242326
0.0259527
0.0270984
0.027945
0.0286784
0.0293296
0.0294398
0.0277387
0.0299783
0.033499
0.0242327
0.0259319
0.0270538
0.0278763
0.0285908
0.0292335
0.0293548
0.0277008
0.0299609
0.05249
0.0298062
0.0267864
0.0268948
0.0276034
0.0283239
0.0292906
0.0311048
0.0367583
0.0607939
0.0524425
0.0298135
0.0268048
0.0269197
0.0276348
0.0283656
0.0293444
0.0311702
0.0368322
0.0608973
0.0526351
0.0299425
0.0269225
0.0270306
0.027735
0.0284473
0.0293969
0.0311866
0.0368194
0.0609219
0.0526852
0.0299217
0.0268762
0.0269667
0.0276576
0.0283596
0.0293047
0.031097
0.0367396
0.0608354
0.0470358
0.0328787
0.0313743
0.0303175
0.0299176
0.0300271
0.0309746
0.0334995
0.0404103
0.0735237
0.046989
0.0328886
0.0314069
0.0303628
0.0299733
0.0300928
0.0310492
0.0335795
0.0404875
0.0736666
0.0471445
0.0330103
0.0315138
0.0304555
0.0300499
0.0301482
0.0310761
0.0335731
0.0404585
0.0736419
0.0471848
0.0329774
0.0314485
0.0303738
0.0299571
0.0300487
0.0309748
0.0334768
0.0403761
0.0735268
0.0394253
0.0330614
0.0341693
0.0331688
0.0320996
0.0315876
0.0322792
0.0351815
0.0425906
0.0829709
0.0393962
0.033077
0.0342131
0.0332278
0.0321706
0.0316688
0.0323685
0.0352738
0.0426735
0.0830703
0.039513
0.0331758
0.0342996
0.0332977
0.0322225
0.0316999
0.0323739
0.0352483
0.0426258
0.0830299
0.0395302
0.0331374
0.0342276
0.0332104
0.0321257
0.0315974
0.0322696
0.0351492
0.0425425
0.0829388
0.0354638
0.0400924
0.0403132
0.0378069
0.0352543
0.033571
0.0335041
0.0365438
0.0464475
0.095556
0.035451
0.0401145
0.0403672
0.0378771
0.035336
0.0336623
0.0336037
0.0366489
0.0465528
0.0956921
0.0355345
0.0401884
0.0404268
0.0379204
0.0353625
0.0336707
0.0335903
0.0366076
0.0464839
0.0956159
0.0355341
0.0401445
0.0403512
0.0378311
0.0352659
0.0335696
0.0334869
0.0365063
0.0463916
0.0954911
0.030542
0.0234137
0.0255143
0.0268136
0.0275053
0.0275608
0.026751
0.0245986
0.0205565
0.0222533
0.0305595
0.0234378
0.0255496
0.0268561
0.0275515
0.0276066
0.0267916
0.0246257
0.0205589
0.0222097
0.0306451
0.0235127
0.025629
0.0269314
0.0276141
0.0276493
0.0268098
0.0246231
0.020547
0.022207
0.0306217
0.02348
0.0255775
0.0268628
0.0275333
0.0275655
0.0267348
0.0245695
0.0205265
0.022233
0.0422245
0.027464
0.0286464
0.030323
0.0315571
0.0316133
0.0307744
0.0293915
0.0300651
0.0384784
0.0422388
0.0275099
0.0287146
0.0304011
0.0316413
0.0317023
0.0308548
0.0294529
0.0300943
0.038495
0.0423621
0.0276018
0.0288031
0.0304803
0.031704
0.0317411
0.0308642
0.0294359
0.030064
0.0385006
0.0423249
0.0275332
0.0286989
0.0303594
0.0315766
0.0316167
0.0307594
0.0293614
0.0300324
0.0385048
0.0379065
0.0307072
0.0353838
0.036614
0.0371539
0.0368546
0.035917
0.0350537
0.0366428
0.0528661
0.0379162
0.0307625
0.0354818
0.0367263
0.0372727
0.036972
0.0360216
0.0351323
0.036683
0.0529073
0.0380187
0.0308497
0.0355591
0.0367838
0.0373073
0.0369802
0.0360018
0.0350884
0.0366304
0.0528974
0.0379821
0.0307701
0.03543
0.0366408
0.0371621
0.0368436
0.0358859
0.0350048
0.0365892
0.0528859
0.0311061
0.0300471
0.0388173
0.0401031
0.0403513
0.0398823
0.0391119
0.0388183
0.0408411
0.0663223
0.0311151
0.0301
0.0389201
0.0402248
0.0404821
0.0400127
0.0392303
0.038911
0.0408997
0.0663607
0.03119
0.0301696
0.0389785
0.0402601
0.0404927
0.039998
0.0391904
0.0388495
0.0408323
0.0663219
0.0311589
0.0300955
0.0388528
0.0401226
0.0403532
0.0398653
0.0390751
0.0387628
0.0407791
0.0662989
0.0269953
0.0322489
0.0403745
0.042257
0.0423111
0.0417126
0.0411686
0.0418209
0.0464493
0.0829892
0.027007
0.0322807
0.0404507
0.0423594
0.0424286
0.0418354
0.0412851
0.0419175
0.0465154
0.083033
0.0270515
0.0323153
0.0404769
0.0423657
0.0424139
0.0417999
0.0412291
0.0418423
0.0464303
0.0829588
0.0270223
0.0322653
0.0403848
0.0422585
0.0423011
0.0416889
0.0411284
0.041763
0.0463796
0.0829255
0.0302091
0.0229587
0.0249338
0.0257826
0.0256414
0.0244147
0.0219994
0.0184025
0.0138145
0.0132749
0.0302481
0.0229955
0.0249736
0.0258233
0.0256794
0.0244461
0.0220203
0.0184108
0.0138107
0.0132541
0.0303035
0.02304
0.0250157
0.0258562
0.0256976
0.0244471
0.0220062
0.0183884
0.013789
0.0132334
0.030244
0.0229846
0.0249536
0.0257909
0.0256362
0.0243974
0.0219739
0.0183751
0.0137919
0.0132562
0.0396958
0.031296
0.0394407
0.0423962
0.0426628
0.0401861
0.0356747
0.0303719
0.0260298
0.0232913
0.0397793
0.0314447
0.0395363
0.0424977
0.0427629
0.0402763
0.0357423
0.0304092
0.0260372
0.0232737
0.0398478
0.0315034
0.0395804
0.04253
0.0427766
0.0402696
0.035719
0.0303766
0.0260047
0.0232783
0.0397374
0.0313197
0.0394621
0.042406
0.0426595
0.0401701
0.0356481
0.0303402
0.0260029
0.0233132
0.0347085
0.0339217
0.0476308
0.0505418
0.0505271
0.0478769
0.0433759
0.0385142
0.0357467
0.0403891
0.0347682
0.0340297
0.0477397
0.0506567
0.0506404
0.0479782
0.0434525
0.0385571
0.0357539
0.0403907
0.0348194
0.0340713
0.0477702
0.0506738
0.0506385
0.0479579
0.0434184
0.0385165
0.0357156
0.0403733
0.0347397
0.0339462
0.0476492
0.0505493
0.0505221
0.0478594
0.0433479
0.0384806
0.0357168
0.04039
0.0288689
0.0309015
0.0478867
0.0513941
0.0518205
0.0498844
0.0463114
0.042461
0.0408867
0.0560777
0.0289141
0.0309773
0.0479782
0.0514968
0.051925
0.0499805
0.0463874
0.0425073
0.0409009
0.056083
0.0289473
0.0310047
0.0479959
0.0514992
0.0519106
0.0499506
0.046346
0.0424608
0.0408566
0.0560463
0.0288906
0.0309215
0.0479001
0.0513994
0.0518157
0.0498686
0.0462855
0.0424283
0.0408546
0.0560555
0.0250267
0.0281544
0.0419241
0.0472411
0.0489494
0.0484101
0.0464255
0.0443653
0.0454627
0.0723538
0.0250614
0.0282026
0.0419823
0.0473125
0.0490279
0.0484872
0.0464909
0.0444092
0.045481
0.0723615
0.0250791
0.0282147
0.0419861
0.0473036
0.0490055
0.0484522
0.0464465
0.0443598
0.0454308
0.0723084
0.0250394
0.0281629
0.0419266
0.0472402
0.0489428
0.0483957
0.0464029
0.0443354
0.045429
0.0723143
0.0352344
0.0272927
0.0298581
0.0309884
0.0308057
0.0292983
0.0264434
0.0223334
0.0172249
0.01791
0.0352421
0.027303
0.0298719
0.0310061
0.0308271
0.0293223
0.026469
0.0223607
0.0172567
0.0179786
0.0352392
0.0273019
0.0298737
0.0310107
0.0308332
0.0293287
0.026475
0.0223668
0.0172651
0.0180033
0.0352467
0.0273017
0.0298692
0.0310009
0.0308178
0.0293076
0.026449
0.0223364
0.0172293
0.0179304
0.044895
0.0330712
0.0408683
0.0446234
0.044679
0.0418433
0.0371039
0.0319963
0.0287925
0.0300468
0.0449236
0.033062
0.0408239
0.044568
0.0446319
0.0418096
0.0370847
0.0319971
0.0288256
0.0301157
0.0449233
0.0330569
0.0408289
0.0445843
0.0446482
0.0418234
0.0370952
0.0320064
0.0288346
0.0300847
0.0449196
0.0330789
0.0408861
0.0446531
0.0447179
0.0418782
0.0371325
0.0320217
0.0288165
0.0300175
0.0390446
0.0352534
0.0488765
0.0519156
0.0515085
0.0485063
0.0438788
0.0393252
0.0376668
0.0461833
0.039081
0.0352457
0.0487999
0.0518357
0.0514331
0.0484465
0.0438374
0.0393053
0.037674
0.0462016
0.0390766
0.0352316
0.0488019
0.0518549
0.0514581
0.0484712
0.0438596
0.0393257
0.0376905
0.046149
0.0390713
0.0352568
0.0488969
0.0519537
0.0515547
0.0485524
0.0439213
0.0393647
0.0377025
0.0461386
0.032062
0.0324326
0.0493785
0.0526406
0.0526712
0.0504026
0.0467115
0.0431181
0.0424434
0.0620077
0.0320819
0.0324312
0.0493174
0.0525644
0.0525959
0.0503394
0.0466654
0.0430919
0.0424383
0.0620418
0.0320743
0.0324145
0.049316
0.0525788
0.0526189
0.0503648
0.0466898
0.0431142
0.042455
0.0620026
0.032082
0.0324356
0.0494002
0.0526754
0.0527146
0.0504489
0.0467565
0.0431597
0.0424792
0.0619864
0.0275383
0.0303271
0.0440863
0.0489872
0.0502231
0.0493055
0.0471568
0.0452842
0.04719
0.0791663
0.0275498
0.0303369
0.044062
0.0489413
0.0501697
0.0492562
0.0471195
0.0452647
0.047193
0.0792306
0.0275462
0.0303365
0.0440673
0.0489558
0.0501907
0.0492799
0.0471432
0.0452865
0.0472086
0.0792006
0.0275572
0.0303483
0.0441196
0.0490262
0.0502665
0.0493508
0.0472015
0.0453261
0.0472258
0.0791636
0.0371329
0.0292459
0.0322551
0.03409
0.0349678
0.0348859
0.033639
0.0308301
0.026042
0.0294697
0.0371251
0.0292451
0.0322568
0.034095
0.0349761
0.0348976
0.0336552
0.030852
0.0260714
0.0295319
0.0371111
0.0292334
0.0322486
0.0340923
0.0349796
0.0349066
0.0336676
0.0308655
0.0260849
0.0295543
0.0371329
0.029247
0.0322598
0.0340988
0.0349801
0.0348998
0.0336523
0.0308405
0.02605
0.0294895
0.0506091
0.0321819
0.0329619
0.034581
0.0356473
0.0354719
0.0342674
0.0328889
0.0349211
0.0500404
0.0506085
0.0321748
0.0329472
0.0345685
0.0356422
0.0354765
0.0342776
0.03291
0.0349641
0.0501563
0.050609
0.0321704
0.0329494
0.0345776
0.0356548
0.0354894
0.0342891
0.0329182
0.0349654
0.0501368
0.0506216
0.0321877
0.0329763
0.0346049
0.0356787
0.0355067
0.0343009
0.0329174
0.0349416
0.0500342
0.0449037
0.0349782
0.0391024
0.04009
0.040256
0.0395633
0.0383225
0.0375344
0.0404058
0.0642021
0.0449006
0.034966
0.0390709
0.0400591
0.0402294
0.0395444
0.0383136
0.0375381
0.0404279
0.0642791
0.0449038
0.03496
0.0390718
0.0400693
0.0402447
0.0395623
0.0383325
0.0375564
0.0404394
0.0642325
0.0449191
0.0349859
0.0391209
0.0401222
0.0402976
0.0396104
0.0383706
0.0375791
0.0404417
0.0641857
0.0360205
0.0337576
0.0422943
0.0433079
0.0431439
0.0422405
0.041164
0.0409412
0.0440987
0.0782378
0.0360069
0.0337383
0.0422534
0.0432636
0.0431016
0.0422041
0.0411379
0.0409295
0.0441052
0.0783168
0.0360081
0.0337319
0.0422549
0.0432747
0.0431194
0.0422265
0.0411636
0.0409565
0.0441275
0.0782908
0.0360322
0.0337682
0.0423173
0.0433443
0.0431902
0.0422933
0.0412198
0.0409956
0.0441453
0.0782478
0.0308624
0.0368703
0.0446871
0.0459251
0.0452894
0.0440824
0.0431423
0.0438406
0.0496554
0.095406
0.0308493
0.0368678
0.0446675
0.0458901
0.0452459
0.0440377
0.0431039
0.0438173
0.049657
0.0954774
0.0308553
0.0368837
0.0446827
0.0459098
0.0452703
0.0440665
0.0431372
0.0438539
0.0496901
0.0954836
0.0308789
0.0369079
0.044728
0.0459706
0.04534
0.0441379
0.0432019
0.0439019
0.0497116
0.0954504
0.0414454
0.0307631
0.0334342
0.0352481
0.0364742
0.0373309
0.037839
0.0375669
0.035537
0.0388511
0.0414335
0.0307621
0.033433
0.0352477
0.0364722
0.0373277
0.0378364
0.0375698
0.0355553
0.0388939
0.0413997
0.0307337
0.0334073
0.0352268
0.03646