/*--------------------------------*- C++ -*----------------------------------*\
| =========                 |                                                 |
| \\      /  F ield         | OpenFOAM: The Open Source CFD Toolbox           |
|  \\    /   O peration     | Version:  2112                                  |
|   \\  /    A nd           | Website:  www.openfoam.com                      |
|    \\/     M anipulation  |                                                 |
\*---------------------------------------------------------------------------*/
FoamFile
{
    version     2.0;
    format      ascii;
    arch        "LSB;label=32;scalar=64";
    class       volScalarField;
    location    "1";
    object      k;
}
// * * * * * * * * * * * * * * * * * * * * * * * * * * * * * * * * * * * * * //

dimensions      [0 2 -2 0 0 0 0];

internalField   nonuniform List<scalar> 
27200
(
0.000465632
0.000465073
0.000480263
0.000490614
0.000492029
0.000494612
0.000503637
0.000509827
0.00051227
0.000516992
0.000504285
0.000489944
0.000470945
0.000452662
0.000442035
0.000428907
0.000408211
0.000377154
0.000354047
0.000348054
0.000344822
0.000350215
0.00036539
0.000379457
0.000390805
0.000400052
0.000407668
0.000414008
0.000419324
0.000423793
0.000427531
0.000430633
0.000433174
0.000435239
0.000436968
0.000438698
0.000441307
0.000447196
0.000456596
0.000464202
0.00054555
0.000545033
0.00054437
0.000543769
0.000543122
0.000542596
0.00054209
0.000541766
0.000541286
0.000540824
0.000540167
0.000539409
0.000538619
0.000537906
0.000537489
0.000537513
0.00053822
0.000540281
0.000542678
0.000535437
0.000528584
0.00053106
0.000533349
0.000535442
0.000537362
0.000539146
0.000540792
0.000542286
0.000543587
0.000544659
0.00054547
0.000546013
0.000546319
0.000546455
0.000546483
0.000546457
0.000546396
0.000546315
0.000546167
0.000545948
0.00065391
0.000653391
0.000652776
0.000652148
0.000651578
0.00065111
0.000650738
0.000650431
0.000650141
0.000649828
0.000649467
0.000649069
0.000648685
0.000648396
0.000648274
0.000648355
0.000648621
0.000649025
0.000649487
0.000650242
0.000650529
0.000650852
0.00065121
0.000651635
0.000652153
0.000652767
0.000653431
0.000654083
0.000654645
0.000655057
0.000655277
0.000655309
0.000655198
0.000655028
0.000654869
0.000654764
0.000654701
0.000654639
0.000654519
0.000654287
0.000727428
0.000727097
0.000726639
0.000726152
0.000725743
0.000725484
0.000725387
0.0007254
0.000725442
0.000725423
0.000725285
0.000725022
0.000724691
0.000724395
0.000724244
0.000724309
0.000724593
0.000725038
0.000725546
0.000726014
0.000726361
0.000726559
0.000726644
0.000726702
0.000726825
0.00072707
0.000727434
0.000727857
0.000728245
0.000728502
0.000728563
0.000728418
0.000728122
0.000727779
0.000727499
0.000727358
0.000727365
0.000727466
0.00072757
0.000727579
0.000779433
0.000779256
0.000778743
0.000778043
0.000777378
0.000776969
0.000776946
0.000777281
0.000777802
0.000778275
0.000778501
0.000778384
0.000777958
0.000777379
0.000776871
0.000776653
0.000776852
0.000777434
0.000778215
0.000778951
0.000779432
0.000779546
0.000779316
0.000778884
0.000778466
0.000778275
0.000778436
0.000778918
0.000779544
0.00078008
0.000780327
0.00078019
0.000779701
0.000779018
0.000778364
0.000777962
0.000777943
0.000778278
0.00077879
0.000779243
0.000875619
0.00087834
0.000881039
0.000882906
0.000884135
0.00088537
0.000887288
0.000889516
0.000892048
0.000894116
0.000895279
0.000895324
0.000894208
0.000892101
0.000889072
0.000885196
0.000880641
0.000875755
0.000871405
0.00086806
0.00086542
0.000863909
0.000863212
0.000863012
0.000863142
0.000863546
0.000864267
0.000865301
0.00086653
0.000867746
0.000868678
0.000869139
0.000869039
0.000868442
0.000867541
0.000866688
0.000866472
0.000867439
0.000869698
0.00087267
0.0011762
0.00117368
0.00117104
0.0011684
0.00116584
0.00116345
0.00116125
0.00115923
0.00115731
0.0011555
0.00115388
0.00115255
0.00115162
0.00115116
0.00115117
0.00115165
0.00115252
0.00115368
0.00115492
0.00115558
0.00115695
0.00115909
0.0011618
0.00116493
0.00116832
0.0011718
0.00117513
0.00117814
0.00118062
0.00118249
0.00118379
0.00118459
0.00118498
0.00118502
0.00118475
0.0011842
0.00118334
0.00118214
0.00118053
0.00117852
0.00138279
0.00138102
0.00137945
0.00137804
0.00137669
0.00137531
0.00137376
0.001372
0.00137007
0.00136817
0.00136663
0.00136564
0.00136525
0.00136539
0.00136596
0.00136682
0.00136779
0.00136878
0.00136977
0.00137088
0.00137231
0.00137419
0.00137646
0.00137901
0.00138162
0.00138407
0.00138612
0.00138759
0.00138845
0.00138883
0.00138902
0.00138925
0.00138955
0.00138983
0.00138998
0.00138987
0.00138932
0.00138824
0.00138665
0.00138473
0.00152335
0.00152252
0.0015219
0.00152133
0.00152069
0.0015199
0.00151892
0.00151776
0.00151648
0.00151525
0.00151439
0.00151405
0.00151414
0.00151449
0.00151498
0.00151552
0.00151605
0.00151652
0.00151695
0.00151746
0.0015183
0.00151959
0.00152118
0.00152286
0.00152446
0.00152583
0.00152686
0.00152747
0.00152767
0.00152761
0.0015276
0.00152781
0.00152815
0.00152844
0.00152855
0.00152838
0.00152787
0.00152701
0.00152582
0.0015245
0.0016233
0.00162313
0.00162264
0.00162174
0.00162055
0.00161934
0.00161843
0.00161798
0.00161792
0.00161802
0.00161822
0.00161844
0.00161845
0.00161815
0.00161767
0.00161728
0.00161728
0.00161781
0.00161876
0.00161989
0.00162111
0.00162229
0.00162318
0.00162365
0.00162379
0.00162383
0.00162404
0.00162456
0.00162526
0.00162593
0.00162652
0.00162693
0.00162694
0.00162647
0.00162563
0.00162469
0.00162394
0.00162355
0.00162343
0.00162336
0.00117563
0.00117648
0.00117672
0.00117646
0.00117603
0.00117586
0.00117634
0.00117749
0.00117899
0.00118035
0.00118108
0.00118093
0.0011799
0.00117824
0.00117626
0.00117428
0.00117266
0.00117154
0.00117091
0.00117061
0.00117034
0.00116997
0.00116952
0.00116915
0.00116906
0.00116944
0.00117046
0.00117204
0.00117384
0.00117544
0.00117636
0.00117641
0.00117561
0.00117423
0.00117267
0.00117139
0.00117086
0.0011713
0.00117256
0.0011742
0.00172563
0.0017236
0.00172227
0.0017212
0.00171998
0.00171835
0.00171614
0.00171338
0.00171027
0.00170736
0.00170541
0.00170476
0.00170517
0.0017062
0.00170737
0.00170836
0.00170897
0.00170916
0.00170911
0.00170933
0.0017106
0.00171323
0.00171694
0.0017212
0.00172545
0.00172921
0.0017321
0.00173391
0.00173472
0.00173497
0.0017354
0.00173636
0.00173762
0.00173876
0.00173933
0.00173902
0.00173767
0.00173527
0.00173205
0.00172858
0.00198922
0.0019882
0.00198856
0.00198929
0.00198955
0.00198874
0.00198656
0.00198301
0.00197855
0.0019743
0.00197189
0.00197192
0.00197371
0.00197626
0.00197868
0.00198037
0.00198096
0.0019804
0.00197907
0.00197799
0.00197873
0.0019818
0.00198645
0.00199161
0.00199628
0.00199974
0.0020015
0.00200143
0.00199989
0.00199796
0.00199729
0.0019985
0.00200093
0.0020035
0.00200532
0.00200574
0.00200441
0.00200132
0.00199691
0.00199233
0.00214427
0.00214446
0.00214614
0.00214795
0.002149
0.00214876
0.00214701
0.00214377
0.00213946
0.00213526
0.00213331
0.00213422
0.00213685
0.00213987
0.00214235
0.00214377
0.00214386
0.00214258
0.0021403
0.00213814
0.00213819
0.00214103
0.00214547
0.00215012
0.002154
0.00215647
0.00215722
0.00215615
0.00215362
0.0021508
0.00214986
0.00215144
0.00215438
0.00215733
0.00215933
0.00215983
0.00215858
0.00215556
0.00215121
0.00214672
0.00224179
0.00224265
0.00224417
0.00224518
0.00224522
0.00224431
0.00224271
0.00224062
0.00223809
0.00223563
0.00223494
0.00223636
0.00223857
0.00224041
0.00224139
0.00224154
0.0022411
0.00224024
0.00223898
0.00223782
0.0022384
0.00224104
0.0022444
0.00224727
0.00224912
0.00224993
0.00224989
0.00224912
0.00224767
0.00224602
0.0022459
0.00224764
0.00224996
0.00225165
0.00225224
0.00225173
0.00225036
0.00224831
0.00224565
0.0022429
0.0014529
0.00145242
0.00145098
0.00144919
0.0014477
0.00144702
0.00144753
0.0014491
0.00145113
0.00145282
0.00145341
0.00145266
0.00145083
0.00144856
0.0014465
0.00144515
0.00144493
0.0014458
0.0014473
0.00144874
0.00144943
0.00144916
0.00144819
0.00144712
0.00144656
0.00144692
0.00144846
0.00145097
0.00145379
0.00145609
0.00145707
0.00145649
0.00145464
0.00145221
0.00144992
0.00144838
0.00144807
0.00144899
0.00145064
0.0014522
0.00221778
0.00221825
0.00222115
0.00222438
0.00222627
0.00222576
0.00222241
0.00221649
0.00220915
0.00220273
0.00220023
0.00220215
0.00220675
0.00221193
0.00221601
0.0022179
0.00221716
0.00221406
0.00220968
0.00220628
0.00220676
0.00221159
0.00221906
0.00222706
0.00223381
0.00223807
0.0022392
0.00223725
0.00223321
0.00222933
0.00222861
0.00223162
0.00223667
0.00224166
0.00224487
0.00224523
0.0022423
0.00223639
0.00222864
0.00222143
0.00252134
0.00252426
0.00253068
0.00253709
0.00254107
0.00254124
0.002537
0.00252863
0.00251767
0.00250782
0.00250469
0.0025088
0.00251673
0.00252498
0.00253115
0.00253382
0.00253235
0.00252694
0.00251906
0.00251226
0.00251211
0.00251909
0.00252977
0.00254058
0.00254898
0.0025534
0.00255306
0.00254805
0.00253983
0.00253203
0.0025304
0.00253553
0.00254397
0.00255215
0.00255758
0.0025588
0.00255519
0.002547
0.00253581
0.00252536
0.00267411
0.0026785
0.00268637
0.00269379
0.00269849
0.00269929
0.00269565
0.00268762
0.00267636
0.00266549
0.00266248
0.00266775
0.00267673
0.0026855
0.00269178
0.00269438
0.00269272
0.0026868
0.0026777
0.00266896
0.00266803
0.0026753
0.0026862
0.00269674
0.00270455
0.00270833
0.00270739
0.00270169
0.00269228
0.00268276
0.00268073
0.00268667
0.00269596
0.00270463
0.00271035
0.00271188
0.00270865
0.0027007
0.0026892
0.00267782
0.00275807
0.00276235
0.00276896
0.00277449
0.00277751
0.00277765
0.00277489
0.00276925
0.00276099
0.00275229
0.00275022
0.00275521
0.00276266
0.00276917
0.0027733
0.00277466
0.0027732
0.00276894
0.00276212
0.00275483
0.00275417
0.00276052
0.00276928
0.00277699
0.00278216
0.00278433
0.00278339
0.00277929
0.00277227
0.00276445
0.00276301
0.00276839
0.00277598
0.00278235
0.00278604
0.00278663
0.00278409
0.00277841
0.00276989
0.00276073
0.00173597
0.00173368
0.00172965
0.00172548
0.00172251
0.00172151
0.00172286
0.00172613
0.00173007
0.00173313
0.00173384
0.00173182
0.00172799
0.00172395
0.00172103
0.00172003
0.00172137
0.00172471
0.00172889
0.00173238
0.0017337
0.00173246
0.00172958
0.00172665
0.00172498
0.00172531
0.00172793
0.00173236
0.00173728
0.00174106
0.00174216
0.0017402
0.00173615
0.00173166
0.00172812
0.00172641
0.00172701
0.00172959
0.00173298
0.00173561
0.00270455
0.00271272
0.00272515
0.00273669
0.00274349
0.00274331
0.00273544
0.00272092
0.00270317
0.00268915
0.00268839
0.00269813
0.00271231
0.0027258
0.00273476
0.00273698
0.00273176
0.00272011
0.00270538
0.00269436
0.00269639
0.00270878
0.00272557
0.00274166
0.00275309
0.00275742
0.00275372
0.00274278
0.00272787
0.00271587
0.00271638
0.00272685
0.00274124
0.00275436
0.00276226
0.0027627
0.00275498
0.00274016
0.00272173
0.00270667
0.00304228
0.00305551
0.00307377
0.00308983
0.00309919
0.0030995
0.00308991
0.00307133
0.00304733
0.00302701
0.00302649
0.00304102
0.00306083
0.00307876
0.00309032
0.00309315
0.00308636
0.00307076
0.00304982
0.00303244
0.00303472
0.00305192
0.00307438
0.00309483
0.0031086
0.00311314
0.00310737
0.00309197
0.00307041
0.00305175
0.00305241
0.00306777
0.00308801
0.00310578
0.00311646
0.00311763
0.0031084
0.00308968
0.00306513
0.0030439
0.0031828
0.00319692
0.00321554
0.00323144
0.00324093
0.00324222
0.00323452
0.00321806
0.00319484
0.00317226
0.00317112
0.00318624
0.00320607
0.00322342
0.00323458
0.00323777
0.00323216
0.00321791
0.00319695
0.00317655
0.00317748
0.00319462
0.00321642
0.00323562
0.00324839
0.00325282
0.00324793
0.0032338
0.00321234
0.00319091
0.0031906
0.00320633
0.00322645
0.00324364
0.00325412
0.00325605
0.0032486
0.00323198
0.00320823
0.00318484
0.00324194
0.00325393
0.00326898
0.003281
0.00328783
0.00328885
0.00328386
0.00327262
0.00325526
0.00323546
0.00323368
0.00324651
0.00326252
0.00327564
0.00328368
0.00328602
0.00328245
0.00327272
0.00325692
0.00323864
0.00323834
0.00325262
0.00327002
0.00328444
0.00329364
0.00329688
0.00329388
0.00328429
0.00326819
0.00324919
0.00324799
0.0032612
0.00327733
0.00329025
0.00329776
0.00329918
0.0032943
0.00328286
0.00326502
0.0032445
0.00206356
0.00205861
0.00204895
0.00203894
0.00203169
0.00202897
0.00203168
0.00203919
0.0020489
0.00205702
0.00206004
0.00205579
0.0020468
0.00203737
0.00203062
0.00202833
0.00203148
0.00203952
0.00204991
0.00205882
0.00206264
0.00205923
0.0020511
0.00204262
0.00203688
0.00203564
0.00203974
0.00204849
0.00205922
0.002068
0.00207127
0.0020669
0.00205744
0.00204728
0.00203958
0.0020362
0.00203814
0.00204486
0.00205384
0.00206125
0.00328815
0.00331545
0.00334222
0.00336044
0.00336659
0.00335953
0.00333948
0.00330931
0.00327671
0.00325687
0.00327317
0.00330216
0.0033307
0.00335088
0.00335924
0.00335469
0.00333745
0.00331038
0.00328099
0.00326417
0.00328297
0.00331429
0.00334528
0.00336799
0.00337872
0.00337608
0.00335998
0.00333307
0.0033028
0.0032843
0.00330129
0.00333072
0.00335939
0.0033791
0.00338618
0.00337947
0.00335921
0.00332838
0.00329473
0.00327348
0.00366986
0.00369955
0.0037298
0.00375025
0.00375797
0.00375211
0.00373289
0.00370326
0.00366891
0.0036416
0.00365522
0.00368627
0.00371807
0.00374038
0.00375033
0.00374705
0.00373074
0.00370425
0.00367306
0.0036487
0.00366485
0.00369835
0.00373271
0.00375753
0.00376966
0.00376799
0.00375247
0.0037258
0.00369347
0.00366719
0.00368156
0.00371327
0.00374543
0.00376747
0.0037763
0.003771
0.00375175
0.00372156
0.00368622
0.00365756
0.00378807
0.00381188
0.0038367
0.00385317
0.00385992
0.00385676
0.00384422
0.0038248
0.00380105
0.00377198
0.00377697
0.00380186
0.00382793
0.00384587
0.00385434
0.00385315
0.00384283
0.00382582
0.00380456
0.0037778
0.00378475
0.00381158
0.00383961
0.00385943
0.00386952
0.00386953
0.0038598
0.00384265
0.00382046
0.00379214
0.00379765
0.003823
0.00384927
0.00386691
0.00387447
0.00387171
0.00385911
0.00383916
0.00381446
0.00378414
0.00379699
0.0038139
0.00383106
0.00384157
0.00384542
0.00384337
0.00383646
0.00382642
0.00381403
0.00378952
0.00378902
0.00380686
0.00382505
0.00383671
0.00384182
0.00384116
0.00383578
0.00382742
0.00381682
0.00379401
0.00379505
0.0038143
0.00383388
0.00384687
0.00385313
0.00385336
0.00384847
0.00384008
0.00382887
0.00380488
0.00380479
0.00382287
0.00384104
0.00385235
0.00385671
0.00385487
0.00384783
0.00383729
0.00382405
0.00379846
0.00251852
0.00249387
0.00246194
0.00243437
0.00241597
0.00241011
0.0024197
0.00244515
0.00248171
0.00251344
0.00251486
0.00249117
0.00246017
0.00243346
0.00241584
0.00241069
0.00242101
0.0024473
0.00248482
0.00251748
0.00251958
0.00249662
0.00246636
0.00244036
0.00242351
0.00241914
0.00243011
0.00245674
0.00249416
0.00252624
0.00252755
0.00250354
0.00247191
0.00244423
0.00242537
0.00241874
0.00242739
0.00245184
0.00248739
0.0025181
0.0041838
0.00417305
0.00420978
0.00423672
0.00424035
0.0042255
0.00420298
0.00418819
0.00419388
0.00419864
0.00417061
0.00416127
0.00419952
0.00422838
0.00423434
0.00422225
0.00420293
0.00419173
0.00420115
0.00420905
0.00418278
0.00417531
0.00421597
0.00424746
0.00425579
0.00424533
0.00422657
0.00421464
0.00422197
0.00422682
0.00419863
0.00418984
0.0042285
0.00425685
0.00426112
0.00424616
0.00422288
0.00420685
0.0042109
0.00421367
0.00463848
0.00460342
0.00463507
0.00465546
0.00465725
0.00464785
0.00464183
0.00466212
0.00471515
0.00471798
0.00462572
0.00459171
0.00462468
0.0046469
0.00465103
0.00464442
0.00464165
0.00466557
0.00472234
0.0047281
0.00463764
0.00460571
0.00464118
0.00466595
0.00467223
0.004667
0.00466458
0.00468764
0.00474221
0.00474467
0.00465234
0.0046191
0.00465254
0.00467427
0.0046768
0.00466744
0.00466083
0.00467994
0.00473131
0.00473213
0.00473987
0.00468552
0.00469498
0.0046956
0.00468748
0.0046789
0.00468572
0.00473653
0.00484002
0.00486322
0.00473053
0.00467696
0.00468747
0.00468951
0.00468317
0.00467671
0.00468603
0.00473978
0.0048465
0.00487234
0.0047411
0.00468894
0.00470125
0.00470509
0.00470027
0.00469481
0.00470439
0.0047575
0.00486248
0.00488517
0.00475226
0.00469897
0.00470958
0.00471101
0.00470331
0.00469467
0.00470094
0.00475069
0.00485265
0.00487373
0.00467198
0.00462739
0.00461367
0.00459308
0.00457216
0.00455852
0.00456477
0.00461673
0.0047398
0.00478604
0.00466548
0.00462169
0.00460892
0.00458945
0.00456981
0.00455764
0.00456562
0.0046197
0.00474536
0.00479389
0.00467438
0.00463159
0.00461998
0.00460164
0.00458297
0.00457146
0.00457963
0.00463328
0.00475764
0.00480378
0.00468275
0.00463885
0.00462574
0.00460552
0.0045847
0.00457085
0.00457655
0.00462757
0.00474927
0.0047936
0.00323851
0.00310122
0.00298067
0.00290143
0.00286275
0.00286644
0.00292114
0.0030413
0.00322479
0.00330554
0.00323639
0.0031
0.00298033
0.00290195
0.00286411
0.00286863
0.00292421
0.00304535
0.00322986
0.00331157
0.00324295
0.00310706
0.00298779
0.00290983
0.00287242
0.0028773
0.00293296
0.00305374
0.00323736
0.00331812
0.00324874
0.00311186
0.00299149
0.00291204
0.00287268
0.00287525
0.00292849
0.00304703
0.00322888
0.0033085
0.005687
0.00557238
0.00545747
0.00542633
0.00543541
0.00548882
0.00563645
0.00595213
0.0064133
0.00606573
0.00567661
0.00556259
0.0054487
0.0054194
0.00543102
0.00548766
0.00563926
0.00595986
0.00642614
0.006082
0.00569296
0.00557951
0.0054681
0.00544123
0.0054548
0.00551235
0.00566348
0.00598197
0.00644409
0.00609544
0.00570489
0.00559133
0.00547824
0.00544767
0.00545662
0.00550912
0.00565517
0.00596885
0.00642746
0.00607769
0.00622671
0.00609757
0.00597491
0.00589638
0.00587508
0.00591798
0.00609146
0.00651582
0.00722605
0.00674907
0.00621715
0.006088
0.00596636
0.00588963
0.00587088
0.005917
0.00609445
0.00652363
0.00723866
0.00676374
0.00623269
0.00610477
0.0059852
0.00591073
0.0058938
0.00594078
0.00611786
0.00654521
0.00725637
0.00677626
0.00624356
0.00611546
0.00599376
0.00591585
0.00589465
0.00593694
0.00610913
0.00653158
0.00723919
0.00675961
0.00626388
0.00609994
0.00598668
0.00588655
0.00583328
0.00584747
0.00600304
0.00646276
0.00733163
0.00691427
0.00625803
0.00609349
0.00598113
0.00588243
0.00583109
0.00584775
0.00600654
0.00647055
0.00734491
0.00692941
0.00627238
0.00610808
0.00599711
0.00589988
0.00584972
0.00586692
0.0060254
0.00648794
0.00735901
0.00693738
0.00627947
0.00611543
0.00600249
0.00590248
0.00584903
0.00586261
0.00601709
0.00647509
0.00734138
0.0069202
0.00617114
0.00598577
0.00584908
0.00571441
0.00562275
0.00559672
0.00569476
0.00607104
0.0069946
0.00693574
0.00616844
0.00598269
0.00584681
0.00571323
0.00562291
0.00559855
0.00569886
0.00607848
0.00700703
0.00695223
0.00618298
0.00599633
0.00586084
0.00572774
0.0056378
0.00561351
0.00571338
0.00609176
0.00701744
0.00695668
0.00618662
0.00600004
0.00586292
0.00572776
0.00563551
0.00560867
0.00570562
0.00608038
0.00700168
0.00693859
0.00294
0.00299277
0.00305941
0.00309811
0.00313156
0.00318365
0.00328006
0.00343891
0.00360948
0.00283096
0.00293885
0.00299236
0.00306048
0.00310061
0.00313512
0.0031875
0.00328421
0.0034426
0.0036111
0.0028324
0.0029453
0.00299945
0.00306809
0.00310815
0.00314241
0.00319464
0.00329025
0.00344687
0.00361334
0.00283563
0.00294908
0.00300262
0.00306969
0.00310798
0.00314007
0.00319028
0.00328409
0.00343987
0.00360755
0.00283121
0.00460685
0.00537696
0.0057497
0.00609369
0.00636686
0.00665378
0.00706196
0.00765948
0.00829699
0.00498823
0.00460075
0.00537113
0.00574399
0.00608949
0.00636504
0.00665524
0.00706759
0.00767009
0.0083115
0.00499732
0.00461416
0.00538721
0.00576371
0.00611167
0.00638841
0.0066781
0.00708781
0.0076851
0.00831918
0.00500253
0.00462059
0.00539387
0.00576845
0.0061128
0.00638518
0.00667023
0.00707547
0.00766899
0.00830178
0.00499271
0.00509374
0.00595211
0.00638409
0.00666739
0.00689363
0.00717514
0.00767022
0.00854841
0.00969063
0.00612174
0.0050874
0.00594602
0.00637892
0.00666397
0.00689288
0.00717792
0.00767735
0.00856062
0.00970571
0.00613352
0.00510008
0.00596172
0.00639777
0.00668521
0.00691529
0.0071999
0.00769697
0.0085755
0.00971439
0.00613522
0.00510632
0.00596735
0.00640091
0.00668473
0.00691053
0.00719057
0.00768304
0.00855743
0.00969559
0.00612365
0.00522289
0.00600342
0.00652552
0.00675579
0.00690334
0.00711828
0.00759578
0.00861893
0.0102198
0.00716095
0.00521944
0.0060003
0.00652345
0.00675518
0.00690488
0.00712273
0.00760406
0.00863182
0.0102347
0.00717153
0.00523056
0.0060136
0.00653901
0.00677228
0.00692268
0.00714015
0.00761966
0.00864332
0.0102404
0.00717146
0.00523391
0.00601601
0.00653905
0.00676944
0.00691649
0.00713024
0.00760567
0.00862552
0.0102222
0.00716059
0.00586617
0.00644108
0.00678266
0.00682954
0.00682839
0.00691373
0.00725928
0.00821609
0.0101842
0.0079287
0.00586621
0.00644092
0.00678437
0.00683253
0.00683288
0.00692028
0.00726882
0.00822978
0.0102023
0.0079419
0.00587773
0.00645291
0.00679783
0.00684642
0.00684665
0.00693333
0.00728027
0.008238
0.0102052
0.00794084
0.00587727
0.00645219
0.00679427
0.00684065
0.00683859
0.00692267
0.00726645
0.00822071
0.0101858
0.00792794
0.00263163
0.00291181
0.00304589
0.00313339
0.0031981
0.00325513
0.00330754
0.00332148
0.00320184
0.00245136
0.00263131
0.00291243
0.00304761
0.00313604
0.00320138
0.00325865
0.00331106
0.00332418
0.00320145
0.00244997
0.00263657
0.0029193
0.00305508
0.00314357
0.00320851
0.00326494
0.00331573
0.00332677
0.00320178
0.00245183
0.0026384
0.00292005
0.0030543
0.00314104
0.00320414
0.00325909
0.00330908
0.00332068
0.00319888
0.00245085
0.00347246
0.00477222
0.00563237
0.00628909
0.00675105
0.00705063
0.0072371
0.00724875
0.00683623
0.0038333
0.00346982
0.00477076
0.00563155
0.0062898
0.00675338
0.00705512
0.00724365
0.0072569
0.00684551
0.00383753
0.00347795
0.00478447
0.00564897
0.00630867
0.00677156
0.00707082
0.00725519
0.0072636
0.00684867
0.00383948
0.00348094
0.00478534
0.00564712
0.00630347
0.00676347
0.00706018
0.00724302
0.00725129
0.00683766
0.00383565
0.00373948
0.00540269
0.00657692
0.00721025
0.00765981
0.00802388
0.00836502
0.00861974
0.00840627
0.005041
0.00373653
0.00540148
0.00657738
0.00721269
0.00766469
0.00803136
0.00837472
0.00863043
0.00841525
0.00504735
0.00374433
0.0054157
0.00659491
0.00723151
0.00768291
0.00804706
0.00838607
0.00863653
0.00841769
0.00504721
0.00374724
0.00541506
0.00659057
0.00722362
0.00767166
0.00803307
0.00837055
0.00862142
0.00840605
0.00504175
0.00375052
0.00538406
0.00673879
0.00741474
0.00785637
0.00824226
0.00869892
0.00923778
0.0093699
0.0061663
0.00374827
0.00538461
0.00674155
0.00741965
0.00786385
0.0082524
0.00871125
0.00925078
0.00938029
0.00617113
0.0037553
0.00539656
0.00675603
0.00743473
0.00787815
0.00826449
0.00871962
0.00925431
0.00938015
0.00616993
0.00375707
0.00539385
0.00674945
0.00742497
0.00786532
0.00824905
0.00870258
0.00923779
0.0093676
0.00616528
0.00386813
0.00613804
0.00723538
0.00771863
0.00800223
0.00828255
0.0087223
0.00947453
0.0102978
0.0075067
0.00386681
0.00613945
0.00723992
0.00772555
0.00801162
0.00829447
0.00873646
0.00948976
0.0103114
0.00751378
0.00387263
0.00614757
0.0072491
0.00773485
0.00802022
0.00830143
0.00874065
0.00949003
0.0103082
0.00751058
0.00387318
0.00614419
0.00724183
0.0077247
0.00800739
0.00828618
0.00872358
0.00947286
0.0102942
0.00750394
0.00248136
0.00285463
0.00302218
0.00312354
0.00317725
0.00318199
0.00312072
0.00295243
0.002621
0.00201103
0.00248207
0.00285628
0.00302466
0.0031266
0.00318064
0.00318544
0.0031239
0.00295475
0.00262145
0.0020086
0.00248662
0.00286234
0.003031
0.0031326
0.00318572
0.0031891
0.00312578
0.00295501
0.00262085
0.00200878
0.00248586
0.00286035
0.00302766
0.00312795
0.00318007
0.00318304
0.00312009
0.00295064
0.00261886
0.00201008
0.00300415
0.00445897
0.00548832
0.00621927
0.00669364
0.00686908
0.00678554
0.00637146
0.00548504
0.00282606
0.00300449
0.00446249
0.00549431
0.00622686
0.00670236
0.00687876
0.00679445
0.00637902
0.00549109
0.00282709
0.00301026
0.00447283
0.00550669
0.00623915
0.00671281
0.00688611
0.00679795
0.0063793
0.00549025
0.00282792
0.00300911
0.00446733
0.00549709
0.00622694
0.00669913
0.00687194
0.00678542
0.00636933
0.00548349
0.00282776
0.00324049
0.00525566
0.00696905
0.0078603
0.00838234
0.00862962
0.00862575
0.00833374
0.00752278
0.00404784
0.00324071
0.00526039
0.00697828
0.00787172
0.00839527
0.00864305
0.00863801
0.00834296
0.00752752
0.0040502
0.00324649
0.00527147
0.00699134
0.00788415
0.00840538
0.00864958
0.00864027
0.00834145
0.00752443
0.00405021
0.00324502
0.00526401
0.00697795
0.0078679
0.00838764
0.00863188
0.00862457
0.00832965
0.00751807
0.00404917
0.00320484
0.00526173
0.00746123
0.00839416
0.00897734
0.00931822
0.00947489
0.00943045
0.00882247
0.00531465
0.00320516
0.00526686
0.00747162
0.00840749
0.00899266
0.0093343
0.0094899
0.00944216
0.00882963
0.00531702
0.00321027
0.00527639
0.00748265
0.00841737
0.00900011
0.00933839
0.00949006
0.00943869
0.00882478
0.00531541
0.00320863
0.00526808
0.00746811
0.00840013
0.00898134
0.00931948
0.0094729
0.00942546
0.00881662
0.00531378
0.00323175
0.00538916
0.00742269
0.00844518
0.00906637
0.00947898
0.00979024
0.0100697
0.0100694
0.00683933
0.00323245
0.00539177
0.00743052
0.00845687
0.00908082
0.00949493
0.00980587
0.0100826
0.0100777
0.0068421
0.00323603
0.0053966
0.00743642
0.00846169
0.00908369
0.00949523
0.00980312
0.0100768
0.0100706
0.00683848
0.00323405
0.00539086
0.007425
0.00844736
0.00906751
0.00947829
0.00978704
0.0100638
0.0100625
0.00683631
0.00246414
0.00281867
0.00297807
0.00304556
0.00303496
0.00293795
0.00274152
0.00243448
0.00201127
0.0014252
0.00246615
0.00282154
0.0029811
0.00304867
0.00303794
0.00294054
0.00274342
0.00243545
0.00201118
0.00142393
0.0024693
0.00282537
0.00298471
0.00305157
0.00303974
0.00294101
0.00274262
0.00243382
0.00200936
0.00142272
0.00246631
0.00282118
0.00298009
0.00304668
0.00303502
0.00293699
0.00273976
0.00243236
0.00200932
0.00142406
0.00288263
0.00450649
0.0059604
0.00671175
0.00705126
0.0069824
0.00656529
0.00584178
0.00468818
0.00202425
0.00288644
0.00451944
0.0059679
0.0067199
0.00705955
0.00699003
0.00657106
0.00584525
0.00469021
0.0020235
0.00289006
0.0045259
0.00597399
0.00672529
0.00706306
0.00699118
0.00657001
0.00584268
0.00468703
0.00202397
0.00288492
0.0045098
0.00596442
0.00671489
0.00705281
0.00698208
0.00656327
0.00583875
0.00468525
0.00202565
0.00305556
0.005271
0.00767446
0.00869946
0.00916615
0.00917195
0.00879108
0.00809672
0.00699021
0.00338773
0.00305886
0.00528008
0.00768334
0.00870938
0.00917648
0.00918153
0.00879839
0.0081007
0.0069909
0.00338801
0.00306223
0.00528556
0.00768926
0.00871474
0.00917981
0.00918239
0.00879699
0.00809783
0.00698771
0.00338724
0.00305769
0.00527461
0.00767854
0.00870283
0.00916793
0.00917179
0.0087891
0.0080936
0.00698727
0.00338787
0.00304993
0.00508689
0.00805861
0.0092563
0.00987778
0.0100525
0.00985868
0.00936717
0.00843627
0.00475881
0.00305299
0.0050932
0.00806644
0.0092661
0.00988855
0.0100629
0.00986722
0.00937243
0.008438
0.00475934
0.00305565
0.00509737
0.00807122
0.00926996
0.00989057
0.0100627
0.00986496
0.00936878
0.00843412
0.00475748
0.00305172
0.00508962
0.00806173
0.00925903
0.00987931
0.0100524
0.00985684
0.00936406
0.00843305
0.0047577
0.00307321
0.00467207
0.00732855
0.00879673
0.00964436
0.0100668
0.0101647
0.0100377
0.0096139
0.00625058
0.00307599
0.00467593
0.00733364
0.00880408
0.00965332
0.0100762
0.0101731
0.0100436
0.00961665
0.00625134
0.00307775
0.00467806
0.00733609
0.00880573
0.00965351
0.0100746
0.0101698
0.0100391
0.00961184
0.00624854
0.00307446
0.00467296
0.00732956
0.0087979
0.009645
0.0100663
0.0101629
0.0100347
0.00961041
0.00624857
0.00273242
0.00316589
0.00336112
0.00344556
0.00343227
0.00331949
0.00310027
0.00277007
0.00232953
0.00173927
0.00273287
0.00316672
0.00336218
0.00344688
0.00343384
0.00332125
0.00310218
0.0027722
0.00233221
0.00174343
0.00273272
0.0031666
0.00336225
0.00344714
0.0034342
0.00332165
0.00310257
0.00277263
0.00233293
0.00174503
0.00273301
0.00316649
0.00336184
0.00344637
0.00343305
0.00332009
0.00310062
0.00277024
0.00232985
0.00174051
0.00313161
0.00475975
0.00627363
0.00715615
0.00750423
0.00740579
0.00695105
0.00619991
0.00502292
0.00239662
0.0031329
0.00476116
0.00627313
0.00715551
0.00750467
0.00740727
0.00695314
0.00620242
0.00502559
0.00240016
0.003133
0.00476107
0.006274
0.00715736
0.00750642
0.00740867
0.00695409
0.00620285
0.00502515
0.0023985
0.00313265
0.00476067
0.00627546
0.00715904
0.00750802
0.00740927
0.00695395
0.00620219
0.00502408
0.00239507
0.003307
0.00554879
0.00807629
0.00918218
0.00963734
0.00960944
0.00919743
0.00849133
0.00738116
0.00370362
0.00330899
0.00555135
0.00807377
0.00918077
0.00963661
0.00960998
0.00919913
0.00849405
0.00738453
0.00370451
0.00330895
0.00555034
0.00807431
0.00918291
0.00963913
0.00961227
0.00920095
0.00849546
0.00738545
0.00370173
0.0033084
0.00554983
0.00807913
0.00918694
0.00964286
0.00961492
0.00920244
0.00849575
0.00738477
0.00370127
0.00327288
0.00541097
0.00850066
0.00972773
0.0103335
0.0104789
0.0102639
0.00977265
0.00884032
0.0050883
0.00327423
0.0054147
0.00849997
0.00972615
0.0103322
0.0104787
0.0102651
0.00977534
0.00884357
0.00509013
0.00327388
0.0054132
0.00850014
0.00972779
0.0103345
0.0104811
0.0102672
0.00977684
0.00884441
0.00508809
0.00327417
0.00541255
0.00850457
0.0097331
0.0103397
0.0104853
0.01027
0.0097779
0.00884436
0.00508726
0.00327743
0.00504729
0.00780509
0.00927332
0.0100921
0.0104838
0.0105678
0.0104564
0.0100565
0.00663665
0.00327837
0.00505187
0.00780751
0.00927369
0.0100917
0.0104838
0.0105692
0.0104597
0.0100614
0.0066403
0.0032782
0.00505209
0.00780834
0.00927541
0.010094
0.0104863
0.0105713
0.0104614
0.0100621
0.00663883
0.00327889
0.00505118
0.00781085
0.00927977
0.010099
0.0104909
0.0105745
0.0104623
0.0100609
0.00663676
0.00282903
0.00331454
0.00353773
0.00367055
0.00373352
0.00372793
0.00363934
0.00343477
0.00307006
0.00242399
0.00282878
0.00331465
0.00353802
0.00367107
0.00373423
0.00372885
0.00364052
0.00343636
0.00307227
0.00242722
0.00282794
0.00331361
0.00353723
0.00367063
0.00373421
0.00372921
0.00364115
0.00343712
0.00307318
0.00242846
0.00282891
0.00331445
0.00353787
0.00367094
0.00373413
0.00372867
0.00364007
0.00343535
0.00307054
0.00242503
0.00339183
0.00507246
0.00623073
0.00704793
0.0075501
0.00771467
0.00757366
0.00709846
0.00614755
0.00336667
0.00339188
0.00507273
0.00623117
0.00704963
0.00755332
0.00771939
0.00757888