/*--------------------------------*- C++ -*----------------------------------*\
| =========                 |                                                 |
| \\      /  F ield         | OpenFOAM: The Open Source CFD Toolbox           |
|  \\    /   O peration     | Version:  2112                                  |
|   \\  /    A nd           | Website:  www.openfoam.com                      |
|    \\/     M anipulation  |                                                 |
\*---------------------------------------------------------------------------*/
FoamFile
{
    version     2.0;
    format      ascii;
    arch        "LSB;label=32;scalar=64";
    class       volScalarField;
    location    "1";
    object      nut;
}
// * * * * * * * * * * * * * * * * * * * * * * * * * * * * * * * * * * * * * //

dimensions      [0 2 -1 0 0 0 0];

internalField   nonuniform List<scalar> 
27200
(
1.23311e-05
1.21663e-05
1.22266e-05
1.25503e-05
1.26657e-05
1.25236e-05
1.26897e-05
1.27104e-05
1.27243e-05
1.30998e-05
1.30647e-05
1.2973e-05
1.26276e-05
1.23167e-05
1.21987e-05
1.21105e-05
1.21782e-05
1.17303e-05
1.08634e-05
1.07717e-05
1.06235e-05
1.0333e-05
1.05634e-05
1.08448e-05
1.10628e-05
1.12356e-05
1.13741e-05
1.14868e-05
1.15791e-05
1.16552e-05
1.17181e-05
1.17699e-05
1.18126e-05
1.18476e-05
1.18759e-05
1.18967e-05
1.19092e-05
1.19068e-05
1.20543e-05
1.22241e-05
1.2957e-05
1.29517e-05
1.29441e-05
1.29348e-05
1.29288e-05
1.2922e-05
1.29164e-05
1.29151e-05
1.29097e-05
1.29079e-05
1.29014e-05
1.28925e-05
1.28813e-05
1.28673e-05
1.28574e-05
1.28479e-05
1.28396e-05
1.28331e-05
1.30397e-05
1.29818e-05
1.27247e-05
1.27433e-05
1.27688e-05
1.2795e-05
1.28202e-05
1.28447e-05
1.28681e-05
1.289e-05
1.29096e-05
1.2926e-05
1.29385e-05
1.29472e-05
1.29525e-05
1.29555e-05
1.29573e-05
1.29588e-05
1.29601e-05
1.29612e-05
1.29612e-05
1.29611e-05
1.41769e-05
1.41715e-05
1.41643e-05
1.41565e-05
1.41495e-05
1.41443e-05
1.41409e-05
1.41388e-05
1.41369e-05
1.41343e-05
1.41303e-05
1.41249e-05
1.41187e-05
1.4113e-05
1.41091e-05
1.41082e-05
1.41103e-05
1.41148e-05
1.41163e-05
1.41299e-05
1.41318e-05
1.41332e-05
1.41346e-05
1.4137e-05
1.41411e-05
1.41475e-05
1.41557e-05
1.41649e-05
1.41735e-05
1.41803e-05
1.41844e-05
1.41855e-05
1.41843e-05
1.41819e-05
1.41797e-05
1.41788e-05
1.41791e-05
1.41802e-05
1.41808e-05
1.418e-05
1.49446e-05
1.49423e-05
1.49375e-05
1.49313e-05
1.49252e-05
1.4921e-05
1.49193e-05
1.49199e-05
1.49217e-05
1.49233e-05
1.49233e-05
1.49211e-05
1.49168e-05
1.49117e-05
1.49074e-05
1.49055e-05
1.49068e-05
1.49111e-05
1.49171e-05
1.49232e-05
1.49281e-05
1.49308e-05
1.49314e-05
1.49307e-05
1.49302e-05
1.49314e-05
1.49349e-05
1.49404e-05
1.49464e-05
1.49516e-05
1.49545e-05
1.49544e-05
1.49515e-05
1.49469e-05
1.49421e-05
1.4939e-05
1.49383e-05
1.49398e-05
1.49423e-05
1.49444e-05
1.54628e-05
1.54658e-05
1.54634e-05
1.54563e-05
1.54463e-05
1.54369e-05
1.54315e-05
1.54321e-05
1.54379e-05
1.54461e-05
1.54532e-05
1.54566e-05
1.54548e-05
1.54485e-05
1.54396e-05
1.54316e-05
1.5428e-05
1.54308e-05
1.5439e-05
1.54498e-05
1.54596e-05
1.54656e-05
1.54663e-05
1.5462e-05
1.54549e-05
1.5448e-05
1.54449e-05
1.54475e-05
1.54549e-05
1.54642e-05
1.5472e-05
1.54756e-05
1.54736e-05
1.54666e-05
1.54568e-05
1.54473e-05
1.54418e-05
1.54423e-05
1.5448e-05
1.5456e-05
1.72177e-05
1.72429e-05
1.72746e-05
1.73107e-05
1.73279e-05
1.73391e-05
1.73509e-05
1.73655e-05
1.73893e-05
1.74134e-05
1.74337e-05
1.74447e-05
1.74438e-05
1.74387e-05
1.74214e-05
1.74002e-05
1.7368e-05
1.73192e-05
1.72648e-05
1.72223e-05
1.71761e-05
1.71436e-05
1.71259e-05
1.71182e-05
1.71177e-05
1.71207e-05
1.71267e-05
1.71362e-05
1.71481e-05
1.71611e-05
1.71726e-05
1.7181e-05
1.71851e-05
1.71851e-05
1.71813e-05
1.7173e-05
1.7163e-05
1.71584e-05
1.71688e-05
1.71892e-05
4.89348e-05
4.87929e-05
4.86367e-05
4.84808e-05
4.83385e-05
4.82193e-05
4.81255e-05
4.80553e-05
4.80004e-05
4.79526e-05
4.79058e-05
4.78595e-05
4.78201e-05
4.77994e-05
4.78058e-05
4.78454e-05
4.79187e-05
4.80273e-05
4.81741e-05
4.83038e-05
4.84089e-05
4.85072e-05
4.86043e-05
4.8708e-05
4.88243e-05
4.89546e-05
4.90935e-05
4.92306e-05
4.93508e-05
4.94405e-05
4.94905e-05
4.94998e-05
4.94758e-05
4.94316e-05
4.93792e-05
4.93267e-05
4.92743e-05
4.92172e-05
4.91459e-05
4.90531e-05
6.18081e-05
6.16846e-05
6.15422e-05
6.14017e-05
6.12805e-05
6.11875e-05
6.11219e-05
6.10774e-05
6.10427e-05
6.10057e-05
6.09586e-05
6.0901e-05
6.0844e-05
6.08063e-05
6.08035e-05
6.08424e-05
6.09207e-05
6.10299e-05
6.11557e-05
6.12833e-05
6.13955e-05
6.14871e-05
6.1565e-05
6.16445e-05
6.17371e-05
6.18462e-05
6.19662e-05
6.20849e-05
6.21862e-05
6.22545e-05
6.228e-05
6.22626e-05
6.22139e-05
6.21541e-05
6.20989e-05
6.2057e-05
6.20263e-05
6.19986e-05
6.19607e-05
6.18998e-05
7.11787e-05
7.10847e-05
7.09587e-05
7.08289e-05
7.07203e-05
7.0648e-05
7.06169e-05
7.06212e-05
7.0644e-05
7.06599e-05
7.06475e-05
7.05995e-05
7.0531e-05
7.04696e-05
7.04395e-05
7.04547e-05
7.05189e-05
7.06244e-05
7.07518e-05
7.08729e-05
7.09622e-05
7.10095e-05
7.10272e-05
7.10401e-05
7.10699e-05
7.11279e-05
7.12152e-05
7.13217e-05
7.1427e-05
7.15042e-05
7.15308e-05
7.15001e-05
7.1428e-05
7.13427e-05
7.12693e-05
7.12226e-05
7.12068e-05
7.1215e-05
7.12293e-05
7.12243e-05
7.9544e-05
7.94722e-05
7.93374e-05
7.918e-05
7.90404e-05
7.89513e-05
7.89336e-05
7.89875e-05
7.90851e-05
7.91761e-05
7.92133e-05
7.91768e-05
7.90842e-05
7.89755e-05
7.88908e-05
7.88621e-05
7.89094e-05
7.90321e-05
7.92006e-05
7.93626e-05
7.9468e-05
7.94944e-05
7.94571e-05
7.93942e-05
7.93443e-05
7.93375e-05
7.93922e-05
7.95066e-05
7.9651e-05
7.9774e-05
7.98278e-05
7.97925e-05
7.96865e-05
7.95506e-05
7.94259e-05
7.9345e-05
7.93289e-05
7.93775e-05
7.94626e-05
7.95337e-05
1.99774e-05
1.99842e-05
1.99885e-05
1.99908e-05
1.9991e-05
1.99898e-05
1.99915e-05
1.99992e-05
2.00107e-05
2.00227e-05
2.00311e-05
2.00335e-05
2.00296e-05
2.00213e-05
2.00108e-05
1.99983e-05
1.99861e-05
1.99758e-05
1.99667e-05
1.99587e-05
1.99495e-05
1.99398e-05
1.99309e-05
1.99246e-05
1.99229e-05
1.9925e-05
1.99324e-05
1.99459e-05
1.99621e-05
1.99775e-05
1.99881e-05
1.99921e-05
1.99898e-05
1.99831e-05
1.99746e-05
1.99646e-05
1.99567e-05
1.9955e-05
1.99595e-05
1.99682e-05
8.0858e-05
8.07126e-05
8.05619e-05
8.042e-05
8.02973e-05
8.02007e-05
8.01287e-05
8.00751e-05
8.00282e-05
7.99809e-05
7.99339e-05
7.9891e-05
7.98592e-05
7.98513e-05
7.98757e-05
7.9937e-05
8.00317e-05
8.0151e-05
8.02791e-05
8.04012e-05
8.05124e-05
8.0614e-05
8.07119e-05
8.08164e-05
8.09333e-05
8.10632e-05
8.11975e-05
8.13226e-05
8.14209e-05
8.14815e-05
8.15033e-05
8.14905e-05
8.14512e-05
8.13991e-05
8.13434e-05
8.12899e-05
8.12359e-05
8.11741e-05
8.10929e-05
8.09865e-05
0.000108054
0.000107927
0.000107797
0.00010767
0.000107557
0.000107462
0.000107385
0.000107318
0.000107252
0.000107184
0.00010713
0.000107093
0.000107072
0.000107074
0.000107104
0.000107168
0.000107261
0.000107373
0.00010749
0.000107604
0.000107724
0.000107851
0.000107978
0.000108106
0.000108238
0.000108371
0.000108498
0.000108604
0.000108676
0.000108708
0.000108716
0.000108706
0.000108675
0.00010863
0.000108577
0.000108521
0.000108461
0.000108389
0.000108295
0.000108178
0.000124575
0.000124484
0.000124374
0.000124254
0.000124143
0.000124057
0.000124006
0.00012398
0.000123959
0.00012393
0.000123905
0.000123884
0.000123857
0.000123832
0.000123829
0.000123863
0.000123939
0.000124046
0.000124162
0.000124267
0.000124372
0.000124471
0.000124552
0.00012462
0.00012469
0.000124773
0.00012487
0.000124968
0.000125045
0.000125084
0.000125099
0.00012509
0.000125048
0.000124981
0.000124909
0.000124847
0.000124802
0.000124768
0.000124722
0.000124653
0.000137595
0.000137535
0.0001374
0.000137214
0.000137027
0.000136893
0.000136851
0.000136903
0.000137004
0.000137092
0.000137144
0.000137138
0.000137065
0.000136949
0.00013684
0.000136791
0.000136839
0.000136986
0.000137182
0.000137364
0.000137506
0.000137584
0.000137585
0.000137531
0.000137469
0.000137449
0.000137506
0.00013764
0.000137803
0.000137931
0.000138003
0.000137998
0.000137905
0.000137751
0.000137584
0.000137459
0.000137415
0.000137455
0.000137532
0.000137586
2.22205e-05
2.22154e-05
2.22048e-05
2.2193e-05
2.21839e-05
2.21789e-05
2.2181e-05
2.21915e-05
2.22059e-05
2.22185e-05
2.22233e-05
2.22187e-05
2.22072e-05
2.21933e-05
2.21817e-05
2.21732e-05
2.21708e-05
2.21757e-05
2.2184e-05
2.21912e-05
2.21923e-05
2.21863e-05
2.21763e-05
2.21673e-05
2.21637e-05
2.21661e-05
2.21768e-05
2.21961e-05
2.22185e-05
2.22378e-05
2.22477e-05
2.22464e-05
2.22365e-05
2.22229e-05
2.22102e-05
2.22001e-05
2.2196e-05
2.22002e-05
2.22092e-05
2.22179e-05
0.000106064
0.000105967
0.000105892
0.000105831
0.000105776
0.00010572
0.000105653
0.000105571
0.000105473
0.000105378
0.000105328
0.000105324
0.000105355
0.000105412
0.000105485
0.000105564
0.00010564
0.000105704
0.000105751
0.000105795
0.000105871
0.00010598
0.00010611
0.000106251
0.000106389
0.000106513
0.000106608
0.000106662
0.000106669
0.000106648
0.000106639
0.000106647
0.000106659
0.000106669
0.000106664
0.000106636
0.000106576
0.000106479
0.000106343
0.000106191
0.000145359
0.000145349
0.000145371
0.000145375
0.00014534
0.00014526
0.000145134
0.000144965
0.000144765
0.000144593
0.000144555
0.000144638
0.000144766
0.000144891
0.000144991
0.000145058
0.000145089
0.000145082
0.000145046
0.000145032
0.000145144
0.000145365
0.000145618
0.000145851
0.000146035
0.000146158
0.00014621
0.000146188
0.000146101
0.000146005
0.00014601
0.000146106
0.000146215
0.000146289
0.000146302
0.000146248
0.000146126
0.000145939
0.0001457
0.00014547
0.000166117
0.000166159
0.000166218
0.000166236
0.000166201
0.000166126
0.000166017
0.000165872
0.000165685
0.0001655
0.000165479
0.000165596
0.000165741
0.000165854
0.000165928
0.000165969
0.000165986
0.000165971
0.000165913
0.000165855
0.000165954
0.000166183
0.00016643
0.000166631
0.000166773
0.00016686
0.000166893
0.000166865
0.000166766
0.00016664
0.000166652
0.000166777
0.000166905
0.000166975
0.000166977
0.00016692
0.000166812
0.00016665
0.00016643
0.000166197
0.000180411
0.000180472
0.00018048
0.000180395
0.000180251
0.000180112
0.000180025
0.000179993
0.000179963
0.000179905
0.000179955
0.000180076
0.000180149
0.000180136
0.000180072
0.000180017
0.00018002
0.00018008
0.000180144
0.000180177
0.000180313
0.000180515
0.000180661
0.00018071
0.000180694
0.000180671
0.000180686
0.000180736
0.000180767
0.000180749
0.000180819
0.000180942
0.000180999
0.00018095
0.00018083
0.000180701
0.000180612
0.000180563
0.000180505
0.000180408
2.42952e-05
2.42785e-05
2.42508e-05
2.42228e-05
2.42035e-05
2.41958e-05
2.42024e-05
2.42232e-05
2.42492e-05
2.42698e-05
2.42747e-05
2.42614e-05
2.42366e-05
2.42109e-05
2.41932e-05
2.41864e-05
2.41933e-05
2.42139e-05
2.424e-05
2.42615e-05
2.42681e-05
2.42576e-05
2.42369e-05
2.42169e-05
2.42066e-05
2.42086e-05
2.42253e-05
2.42557e-05
2.42906e-05
2.43186e-05
2.43289e-05
2.43187e-05
2.4295e-05
2.42686e-05
2.42486e-05
2.42382e-05
2.42407e-05
2.42566e-05
2.42779e-05
2.42942e-05
0.000126053
0.000126087
0.000126153
0.000126213
0.00012623
0.000126182
0.000126058
0.000125865
0.000125634
0.000125455
0.000125463
0.000125579
0.000125735
0.000125894
0.000126019
0.000126085
0.000126081
0.00012601
0.000125897
0.000125826
0.000125929
0.000126128
0.000126357
0.000126579
0.000126753
0.000126851
0.000126856
0.00012677
0.000126618
0.000126488
0.00012652
0.00012664
0.00012678
0.0001269
0.000126961
0.000126938
0.000126818
0.00012661
0.000126345
0.000126113
0.00017345
0.000173665
0.000173912
0.000174083
0.00017413
0.000174044
0.000173828
0.000173496
0.000173081
0.000172727
0.000172781
0.000173079
0.000173417
0.000173691
0.000173854
0.000173895
0.000173813
0.000173618
0.000173339
0.000173112
0.000173283
0.000173688
0.000174126
0.000174489
0.000174722
0.000174808
0.000174743
0.000174533
0.000174208
0.000173911
0.000173997
0.000174305
0.000174632
0.000174866
0.000174958
0.000174894
0.000174679
0.000174326
0.000173872
0.000173462
0.000195542
0.000195786
0.00019607
0.00019627
0.000196352
0.000196319
0.000196174
0.000195907
0.00019549
0.000194992
0.000194982
0.000195294
0.000195652
0.000195935
0.00019611
0.00019618
0.000196144
0.00019599
0.000195684
0.000195292
0.00019538
0.000195784
0.000196229
0.00019659
0.000196828
0.000196941
0.000196924
0.000196762
0.000196422
0.000195973
0.000195992
0.000196317
0.000196669
0.000196922
0.000197041
0.000197028
0.000196885
0.000196601
0.000196149
0.000195605
0.000209019
0.000209251
0.000209458
0.000209534
0.000209502
0.000209424
0.000209343
0.00020924
0.000209016
0.000208603
0.000208603
0.000208889
0.000209153
0.000209292
0.000209329
0.000209324
0.000209321
0.000209299
0.000209155
0.000208818
0.00020889
0.000209244
0.000209572
0.000209769
0.000209854
0.000209884
0.000209899
0.000209875
0.000209709
0.000209332
0.000209354
0.00020965
0.000209909
0.000210026
0.000210023
0.000209959
0.000209879
0.000209763
0.000209512
0.000209061
2.64983e-05
2.64676e-05
2.64061e-05
2.6342e-05
2.62958e-05
2.62758e-05
2.62885e-05
2.63335e-05
2.63943e-05
2.64464e-05
2.64674e-05
2.64418e-05
2.63856e-05
2.63264e-05
2.62844e-05
2.6268e-05
2.62836e-05
2.63315e-05
2.63955e-05
2.64514e-05
2.64762e-05
2.6455e-05
2.64033e-05
2.63494e-05
2.63136e-05
2.63043e-05
2.63273e-05
2.63821e-05
2.64515e-05
2.65105e-05
2.65357e-05
2.65126e-05
2.64564e-05
2.63955e-05
2.63501e-05
2.63286e-05
2.63381e-05
2.63789e-05
2.64351e-05
2.64825e-05
0.000141798
0.000141901
0.000142001
0.000142076
0.000142103
0.000142068
0.000141952
0.000141753
0.000141464
0.00014119
0.000141313
0.000141482
0.000141653
0.000141808
0.000141924
0.000141985
0.000141971
0.000141874
0.000141682
0.000141492
0.000141682
0.000141909
0.000142138
0.000142346
0.000142506
0.000142596
0.000142591
0.000142481
0.000142254
0.000142014
0.000142154
0.00014233
0.000142498
0.000142631
0.000142702
0.000142691
0.000142581
0.000142368
0.000142049
0.000141729
0.000190657
0.000190761
0.000191066
0.000191404
0.000191714
0.000191954
0.000192072
0.000191991
0.000191471
0.000190383
0.000190084
0.00019025
0.000190624
0.000191043
0.000191449
0.000191795
0.000192027
0.000192063
0.000191653
0.00019066
0.000190444
0.000190693
0.000191152
0.000191651
0.000192125
0.000192519
0.000192774
0.000192804
0.000192361
0.00019132
0.000191054
0.000191245
0.000191629
0.000192032
0.000192392
0.00019266
0.000192785
0.000192689
0.000192137
0.000191005
0.000209957
0.000209907
0.000210285
0.000210823
0.000211426
0.000212015
0.000212515
0.000212795
0.000212354
0.000210389
0.00020946
0.000209458
0.000209889
0.000210492
0.000211171
0.000211845
0.000212438
0.000212813
0.000212464
0.000210576
0.000209716
0.000209788
0.000210295
0.000210972
0.000211717
0.000212443
0.000213066
0.000213448
0.000213081
0.000211161
0.000210266
0.000210294
0.000210742
0.00021134
0.00021199
0.000212608
0.000213118
0.000213388
0.000212921
0.000210921
0.00022128
0.000221209
0.000221508
0.000221931
0.000222429
0.000222978
0.000223553
0.000224041
0.000223898
0.000221915
0.000220901
0.000220869
0.00022121
0.00022168
0.000222231
0.00022284
0.000223478
0.000224032
0.000223954
0.000222025
0.000221063
0.000221084
0.000221482
0.000222009
0.000222613
0.000223267
0.000223937
0.000224505
0.000224423
0.000222477
0.000221494
0.000221487
0.000221843
0.000222314
0.000222849
0.000223424
0.000224009
0.000224491
0.000224329
0.00022232
2.93033e-05
2.91611e-05
2.89737e-05
2.88097e-05
2.86983e-05
2.86573e-05
2.87065e-05
2.88547e-05
2.9072e-05
2.92609e-05
2.92719e-05
2.91354e-05
2.8954e-05
2.8796e-05
2.86904e-05
2.86544e-05
2.87082e-05
2.8861e-05
2.90832e-05
2.92769e-05
2.92916e-05
2.91593e-05
2.89823e-05
2.88285e-05
2.87276e-05
2.86969e-05
2.8756e-05
2.8913e-05
2.91373e-05
2.93304e-05
2.93433e-05
2.92086e-05
2.90271e-05
2.88666e-05
2.87565e-05
2.87143e-05
2.87601e-05
2.89036e-05
2.91155e-05
2.92983e-05
0.000149931
0.000148779
0.000149384
0.000150478
0.000151593
0.000152629
0.000153587
0.000154316
0.000154034
0.000151928
0.000149505
0.000148395
0.000149048
0.000150206
0.000151398
0.000152522
0.000153573
0.000154393
0.000154191
0.000152144
0.000149762
0.000148699
0.000149409
0.000150627
0.00015187
0.000153028
0.000154093
0.000154905
0.000154678
0.000152595
0.000150188
0.000149105
0.000149777
0.000150933
0.000152094
0.000153157
0.000154122
0.000154839
0.000154532
0.000152392
0.000187419
0.000186174
0.000188079
0.000190811
0.000193678
0.000196443
0.000199012
0.000200883
0.000199677
0.000192138
0.00018687
0.000185662
0.000187616
0.000190415
0.000193366
0.000196229
0.000198905
0.00020088
0.000199761
0.000192266
0.000187055
0.000185923
0.000187967
0.000190858
0.000193892
0.000196819
0.000199531
0.000201518
0.000200393
0.000192894
0.000187662
0.000186504
0.000188497
0.000191307
0.000194236
0.00019704
0.000199624
0.000201489
0.000200266
0.000192714
0.000196518
0.000195655
0.000198344
0.000201982
0.000205879
0.000209748
0.000213518
0.00021669
0.000215765
0.000202881
0.000196034
0.000195196
0.00019792
0.000201607
0.000205568
0.000209514
0.000213368
0.000216628
0.000215774
0.000202922
0.000196125
0.000195351
0.000198155
0.000201928
0.000205971
0.000209987
0.000213891
0.00021718
0.000216339
0.000203492
0.000196684
0.000195896
0.000198663
0.000202374
0.000206331
0.000210243
0.000214034
0.000217209
0.000216274
0.000203383
0.000204861
0.00020471
0.000207075
0.000210178
0.000213587
0.000217094
0.000220679
0.00022407
0.000224105
0.000210559
0.000204482
0.000204352
0.000206746
0.000209884
0.000213336
0.000216892
0.000220532
0.000223982
0.000224067
0.000210533
0.000204492
0.000204412
0.000206866
0.000210071
0.00021359
0.000217209
0.0002209
0.000224388
0.000224502
0.000210995
0.00020495
0.000204863
0.000207293
0.000210455
0.000213914
0.000217458
0.000221064
0.000224462
0.000224495
0.000210952
3.32846e-05
3.25765e-05
3.19414e-05
3.1507e-05
3.12827e-05
3.12883e-05
3.15802e-05
3.22424e-05
3.32182e-05
3.3619e-05
3.32621e-05
3.25587e-05
3.19288e-05
3.15002e-05
3.12819e-05
3.12931e-05
3.15905e-05
3.2258e-05
3.32387e-05
3.36447e-05
3.32913e-05
3.25914e-05
3.19642e-05
3.15381e-05
3.13225e-05
3.13363e-05
3.16352e-05
3.2302e-05
3.32794e-05
3.36826e-05
3.33276e-05
3.26256e-05
3.19956e-05
3.15645e-05
3.13408e-05
3.13436e-05
3.16296e-05
3.22838e-05
3.32509e-05
3.36456e-05
0.000133794
0.000135523
0.000140263
0.000146687
0.000153026
0.000158876
0.00016443
0.000168707
0.000166496
0.000144088
0.000133444
0.000135175
0.000139932
0.000146402
0.000152811
0.000158748
0.000164393
0.000168758
0.000166611
0.000144235
0.000133604
0.000135373
0.000140204
0.00014675
0.000153223
0.0001592
0.000164861
0.000169225
0.000167061
0.000144646
0.000133981
0.000135767
0.000140584
0.000147073
0.000153461
0.000159337
0.000164894
0.00016916
0.000166922
0.000144477
0.00014438
0.000150743
0.000160212
0.000170932
0.000181645
0.000191751
0.000201408
0.000208709
0.000203732
0.0001515
0.000143878
0.000150255
0.000159749
0.000170519
0.000181308
0.000191512
0.000201275
0.000208676
0.000203755
0.00015142
0.000143892
0.000150363
0.000159973
0.000170865
0.000181762
0.000192045
0.000201858
0.000209283
0.000204372
0.000152133
0.000144492
0.000150947
0.000160516
0.000171331
0.00018212
0.000192273
0.000201948
0.000209245
0.000204254
0.000152091
0.000134536
0.000145413
0.000158124
0.000170828
0.000183142
0.000194944
0.000206852
0.000217635
0.00021404
0.000135065
0.00013413
0.000144994
0.000157718
0.000170455
0.000182821
0.000194692
0.000206686
0.000217558
0.00021403
0.000135008
0.000134117
0.000145042
0.000157858
0.000170698
0.000183165
0.000195122
0.000207181
0.000218098
0.000214589
0.00013555
0.000134619
0.00014556
0.000158352
0.000171138
0.000183522
0.000195373
0.000207308
0.000218098
0.000214493
0.000135495
0.000140081
0.000151609
0.000163504
0.000174684
0.000185368
0.000195728
0.000206524
0.000217654
0.000218166
0.000139851
0.000139768
0.00015129
0.000163198
0.000174399
0.000185113
0.000195513
0.000206362
0.000217554
0.00021812
0.000139791
0.000139735
0.000151291
0.000163259
0.000174532
0.000185321
0.000195794
0.000206708
0.000217957
0.000218568
0.000140222
0.000140136
0.000151707
0.000163662
0.000174902
0.000185639
0.00019604
0.000206862
0.000218004
0.000218523
0.000140184
1.97232e-05
3.20342e-05
3.2381e-05
3.25743e-05
3.27344e-05
3.29986e-05
3.35065e-05
3.43518e-05
3.52822e-05
1.93871e-05
1.97133e-05
3.20223e-05
3.23761e-05
3.2579e-05
3.27474e-05
3.30141e-05
3.35254e-05
3.43706e-05
3.52921e-05
1.93912e-05
1.97325e-05
3.2056e-05
3.24146e-05
3.2617e-05
3.27845e-05
3.30512e-05
3.35579e-05
3.43944e-05
3.53046e-05
1.9406e-05
1.97503e-05
3.20837e-05
3.2436e-05
3.26307e-05
3.27875e-05
3.30445e-05
3.35407e-05
3.43706e-05
3.52835e-05
1.93933e-05
2.37649e-05
7.2222e-05
0.000111634
0.000136958
0.000152804
0.00016377
0.000170823
0.000167994
0.000135741
2.48468e-05
2.3742e-05
7.21016e-05
0.000111423
0.000136745
0.00015264
0.000163678
0.000170808
0.000168047
0.000135822
2.48643e-05
2.37716e-05
7.21835e-05
0.000111629
0.000137057
0.000153017
0.000164082
0.000171214
0.000168428
0.000136087
2.48865e-05
2.37965e-05
7.23462e-05
0.000111874
0.000137283
0.000153175
0.000164152
0.00017119
0.00016832
0.000135953
2.48639e-05
3.11163e-05
8.04616e-05
0.000121715
0.000151718
0.000173788
0.000191555
0.000206044
0.000209812
0.00017609
3.43358e-05
3.10905e-05
8.03323e-05
0.000121488
0.000151458
0.000173559
0.000191398
0.000205975
0.000209828
0.000176147
3.43614e-05
3.11219e-05
8.04301e-05
0.000121711
0.000151813
0.000174014
0.000191913
0.000206509
0.000210338
0.00017652
3.43788e-05
3.11505e-05
8.05941e-05
0.000121967
0.000152068
0.000174202
0.000191998
0.00020648
0.000210208
0.000176364
3.43483e-05
3.7812e-05
8.0626e-05
0.00011682
0.000144564
0.000167062
0.000187189
0.000206797
0.000220591
0.000198112
4.44722e-05
3.77928e-05
8.05291e-05
0.000116652
0.000144364
0.000166873
0.000187046
0.000206724
0.000220595
0.000198155
4.44976e-05
3.78264e-05
8.06242e-05
0.000116839
0.000144648
0.000167246
0.000187487
0.000207205
0.000221072
0.00019851
4.45096e-05
3.78483e-05
8.07407e-05
0.00011702
0.000144838
0.000167393
0.000187554
0.00020717
0.000220942
0.000198362
4.44789e-05
4.66961e-05
8.42616e-05
0.000115761
0.000140008
0.000160058
0.00017852
0.000197915
0.000216937
0.000208725
5.44484e-05
4.66884e-05
8.42017e-05
0.000115664
0.000139885
0.000159931
0.000178414
0.000197853
0.000216935
0.000208776
5.44872e-05
4.67306e-05
8.42766e-05
0.000115788
0.000140062
0.000160168
0.000178709
0.000198198
0.000217308
0.000209083
5.4496e-05
4.67386e-05
8.43528e-05
0.000115907
0.0001402
0.000160288
0.000178778
0.000198186
0.000217206
0.000208939
5.4454e-05
1.86786e-05
3.16216e-05
3.23274e-05
3.27739e-05
3.31046e-05
3.34035e-05
3.36913e-05
3.38006e-05
3.32531e-05
1.80415e-05
1.86735e-05
3.16176e-05
3.23287e-05
3.27817e-05
3.31172e-05
3.34181e-05
3.37075e-05
3.3815e-05
3.32556e-05
1.8037e-05
1.869e-05
3.16519e-05
3.23671e-05
3.28204e-05
3.31547e-05
3.34532e-05
3.3736e-05
3.3834e-05
3.32613e-05
1.80475e-05
1.87022e-05
3.16681e-05
3.23767e-05
3.28216e-05
3.3146e-05
3.34356e-05
3.37113e-05
3.38078e-05
3.32465e-05
1.80435e-05
2.06748e-05
6.87665e-05
0.000106588
0.000132357
0.000148601
0.00015796
0.000160932
0.000152034
0.000114425
2.17535e-05
2.0662e-05
6.87077e-05
0.000106484
0.000132265
0.000148535
0.000157928
0.000160928
0.000152057
0.000114506
2.17644e-05
2.0683e-05
6.88052e-05
0.000106676
0.000132514
0.000148796
0.000158177
0.000161153
0.000152257
0.000114651
2.17778e-05
2.06988e-05
6.88782e-05
0.000106789
0.000132609
0.000148856
0.000158188
0.000161118
0.000152179
0.000114531
2.17653e-05
2.6757e-05
7.99003e-05
0.000124084
0.00015433
0.000176503
0.000192973
0.000203316
0.000199615
0.000157383
3.11063e-05
2.67414e-05
7.98405e-05
0.000123972
0.000154204
0.0001764
0.000192912
0.000203298
0.000199633
0.000157419
3.11242e-05
2.67646e-05
7.99654e-05
0.000124211
0.000154538
0.000176787
0.000193311
0.000203673
0.000199954
0.000157623
3.1133e-05
2.67832e-05
8.00263e-05
0.000124305
0.000154616
0.000176816
0.000193277
0.000203583
0.000199828
0.000157508
3.11143e-05
3.21108e-05
7.89115e-05
0.000119611
0.000149178
0.000173056
0.000193561
0.000210985
0.000218305
0.000185523
4.12445e-05
3.2096e-05
7.88905e-05
0.000119555
0.00014911
0.000173003
0.00019354
0.000210999
0.000218347
0.000185574
4.12597e-05
3.21213e-05
7.9005e-05
0.000119767
0.000149403
0.000173353
0.000193917
0.00021137
0.000218672
0.000185776
4.12637e-05
3.21375e-05
7.90172e-05
0.000119785
0.000149402
0.00017331
0.00019382
0.000211225
0.000218506
0.000185642
4.12468e-05
3.79717e-05
8.45745e-05
0.000116874
0.000141825
0.000163475
0.00018391
0.000204365
0.000221078
0.00020548
5.30741e-05
3.79594e-05
8.45669e-05
0.000116864
0.000141816
0.00016348
0.00018394
0.000204422
0.000221153
0.000205556
5.30987e-05
3.79843e-05
8.46347e-05
0.000116988
0.000141995
0.000163709
0.000184203
0.000204699
0.000221415
0.000205734
5.30957e-05
3.79955e-05
8.4634e-05
0.000116972
0.000141957
0.000163633
0.000184079
0.00020453
0.000221227
0.000205582
5.30712e-05
1.81436e-05
3.13235e-05
3.22181e-05
3.27478e-05
3.30316e-05
3.30636e-05
3.27652e-05
3.18928e-05
3.00765e-05
1.63564e-05
1.81437e-05
3.13276e-05
3.22264e-05
3.276e-05
3.30466e-05
3.30802e-05
3.27822e-05
3.19077e-05
3.00834e-05
1.63488e-05
1.81593e-05
3.13604e-05
3.22614e-05
3.27939e-05
3.30771e-05
3.31052e-05
3.27993e-05
3.19168e-05
3.00869e-05
1.63537e-05
1.81622e-05
3.13605e-05
3.2255e-05
3.27802e-05
3.30566e-05
3.30795e-05
3.27718e-05
3.18918e-05
3.00713e-05
1.63558e-05
1.92363e-05
6.5155e-05
9.4635e-05
0.000114802
0.000127782
0.000134329
0.000134655
0.000124308
9.00615e-05
1.86805e-05
1.92342e-05
6.51491e-05
9.46161e-05
0.000114787
0.000127774
0.00013433
0.000134657
0.000124343
9.01726e-05
1.86861e-05
1.92519e-05
6.52336e-05
9.47512e-05
0.000114941
0.00012792
0.000134452
0.000134754
0.000124426
9.0236e-05
1.86943e-05
1.92541e-05
6.52354e-05
9.47641e-05
0.000114947
0.000127913
0.000134426
0.000134716
0.000124352
9.01086e-05
1.86901e-05
2.49316e-05
8.09574e-05
0.000123534
0.000151871
0.000170203
0.000181859
0.000186439
0.000178315
0.000138999
2.78941e-05
2.49287e-05
8.09573e-05
0.000123519
0.000151846
0.000170185
0.000181846
0.000186426
0.000178311
0.000139022
2.79048e-05
2.49502e-05
8.10691e-05
0.000123712
0.000152088
0.000170437
0.000182081
0.000186627
0.000178469
0.000139107
2.79102e-05
2.49515e-05
8.10488e-05
0.000123688
0.000152053
0.000170381
0.000182008
0.000186549
0.000178389
0.000139028
2.7902e-05
2.97173e-05
8.29273e-05
0.000129074
0.000158132
0.000179755
0.000195943
0.000206577
0.000206192
0.000171524
3.83294e-05
2.97147e-05
8.2943e-05
0.000129092
0.000158155
0.000179786
0.000195978
0.000206607
0.000206211
0.000171557
3.83414e-05
2.97378e-05
8.30512e-05
0.000129279
0.000158387
0.000180037
0.000196222
0.000206824
0.000206386
0.000171651
3.83407e-05
2.97372e-05
8.29938e-05
0.000129194
0.00015828
0.000179907
0.000196079
0.000206685
0.000206268
0.000171557
3.83303e-05
3.48201e-05
8.10531e-05
0.000122817
0.000151901
0.000174846
0.000193865
0.000209538
0.000218212
0.000196457
5.0728e-05
3.48201e-05
8.10517e-05
0.000122844
0.000151954
0.000174918
0.000193947
0.000209615
0.000218268
0.000196503
5.07424e-05
3.48397e-05
8.11102e-05
0.00012296
0.000152105
0.000175089
0.000194123
0.000209781
0.00021841
0.000196586
5.07341e-05
3.48348e-05
8.1063e-05
0.000122862
0.000151974
0.000174931
0.000193947
0.000209606
0.000218263
0.000196483
5.07222e-05
1.80898e-05
3.11448e-05
3.20128e-05
3.23779e-05
3.23301e-05
3.18186e-05
3.07478e-05
2.89852e-05
2.63542e-05
1.3771e-05
1.80961e-05
3.11581e-05
3.20269e-05
3.23931e-05
3.23458e-05
3.18337e-05
3.07612e-05
2.89954e-05
2.63589e-05
1.37681e-05
1.81091e-05
3.11825e-05
3.20504e-05
3.24134e-05
3.2361e-05
3.18424e-05
3.07631e-05
2.89916e-05
2.63528e-05
1.3766e-05
1.81009e-05
3.1165e-05
3.20309e-05
3.23915e-05
3.23379e-05
3.18202e-05
3.0744e-05
2.89778e-05
2.6346e-05
1.37682e-05
1.88397e-05
5.84025e-05
8.10679e-05
9.56285e-05
0.000104888
0.000109188
0.00010874
0.000101126
7.5994e-05
1.58335e-05
1.885e-05
5.84608e-05
8.10753e-05
9.56318e-05
0.000104889
0.000109182
0.000108725
0.000101122
7.60385e-05
1.58337e-05
1.88648e-05
5.85187e-05
8.11504e-05
9.57125e-05
0.00010496
0.000109236
0.000108762
0.000101141
7.60303e-05
1.58379e-05
1.885e-05
5.8444e-05
8.11332e-05
9.56957e-05
0.000104942
0.000109222
0.000108754
0.000101126
7.59777e-05
1.58406e-05
2.42097e-05
7.37142e-05
0.000111288
0.000134765
0.000149655
0.000158139
0.000160354
0.000153193
0.000123023
2.55739e-05
2.42203e-05
7.37335e-05
0.000111292
0.000134766
0.000149657
0.000158135
0.000160337
0.000153174
0.000123023
2.5577e-05
2.42379e-05
7.37966e-05
0.000111392
0.000134886
0.000149772
0.000158232
0.000160412
0.000153226
0.000123042
2.55765e-05
2.42216e-05
7.37619e-05
0.000111364
0.000134849
0.000149728
0.000158192
0.000160385
0.000153209
0.000123022
2.55754e-05
2.89996e-05
7.53646e-05
0.000122053
0.000150039
0.000169457
0.000182315
0.000188883
0.000185981
0.000156661
3.63453e-05
2.90123e-05
7.53667e-05
0.000122057
0.000150057
0.000169485
0.000182343
0.0001889
0.000185987
0.000156671
3.635e-05
2.90298e-05
7.54236e-05
0.000122157
0.000150175
0.000169601
0.000182445
0.000188982
0.000186046
0.000156696
3.63455e-05
2.90118e-05
7.53969e-05
0.000122113
0.000150112
0.000169525
0.000182369
0.000188918
0.000186001
0.000156665
3.63428e-05
3.39642e-05
6.97772e-05
0.000115296
0.000147423
0.000171018
0.000188403
0.000200298
0.000204394
0.000182973
4.85983e-05
3.39787e-05
6.97734e-05
0.000115296
0.000147447
0.000171061
0.000188455
0.000200346
0.000204431
0.000183004
4.8605e-05
3.39936e-05
6.9807e-05
0.000115363
0.00014753
0.000171147
0.000188532
0.00020041
0.000204477
0.000183023
4.85972e-05
3.39748e-05
6.9783e-05
0.000115321
0.000147465
0.000171064
0.000188442
0.000200325
0.000204409
0.000182975
4.85936e-05
1.90709e-05
3.30511e-05
3.40524e-05
3.44797e-05
3.44171e-05
3.38488e-05
3.27134e-05
3.09222e-05
2.83545e-05
1.52012e-05
1.9073e-05
3.30561e-05
3.40581e-05
3.44864e-05
3.44247e-05
3.3857e-05
3.2722e-05
3.09318e-05
2.83675e-05
1.52159e-05
1.90724e-05
3.30549e-05
3.40575e-05
3.44865e-05
3.44252e-05
3.38576e-05
3.27227e-05
3.09331e-05
2.83711e-05
1.52229e-05
1.90724e-05
3.30529e-05
3.40543e-05
3.44819e-05
3.44193e-05
3.38502e-05
3.27137e-05
3.09218e-05
2.83552e-05
1.52057e-05
1.96599e-05
6.1654e-05
8.66751e-05
0.000103285
0.000113436
0.000117967
0.000117199
0.000108122