/*--------------------------------*- C++ -*----------------------------------*\
| =========                 |                                                 |
| \\      /  F ield         | OpenFOAM: The Open Source CFD Toolbox           |
|  \\    /   O peration     | Version:  2112                                  |
|   \\  /    A nd           | Website:  www.openfoam.com                      |
|    \\/     M anipulation  |                                                 |
\*---------------------------------------------------------------------------*/
FoamFile
{
    version     2.0;
    format      ascii;
    arch        "LSB;label=32;scalar=64";
    class       surfaceScalarField;
    location    "1";
    object      phi;
}
// * * * * * * * * * * * * * * * * * * * * * * * * * * * * * * * * * * * * * //

dimensions      [0 3 -1 0 0 0 0];

oriented        oriented;

internalField   nonuniform List<scalar> 
76920
(
3.88121e-06
-3.88228e-06
-8.14308e-08
8.03474e-08
3.87995e-06
-7.61624e-08
7.72389e-08
3.87769e-06
-7.1238e-08
7.33611e-08
3.87489e-06
-6.74853e-08
6.92875e-08
3.8735e-06
-6.54101e-08
6.60061e-08
3.87398e-06
-6.4616e-08
6.21047e-08
3.87747e-06
-6.4813e-08
5.98395e-08
3.88313e-06
-6.46648e-08
5.69282e-08
3.89129e-06
-6.46122e-08
5.53448e-08
3.90033e-06
-6.44563e-08
5.41817e-08
3.90926e-06
-6.35643e-08
5.37644e-08
3.91647e-06
-6.20929e-08
5.36222e-08
3.92118e-06
-6.0378e-08
5.37302e-08
3.92547e-06
-5.94722e-08
5.2741e-08
3.92916e-06
-5.96951e-08
5.26011e-08
3.93463e-06
-6.0854e-08
5.30925e-08
3.93966e-06
-6.18642e-08
5.30764e-08
3.94278e-06
-6.15982e-08
5.60596e-08
3.94167e-06
-6.07958e-08
6.03299e-08
3.93682e-06
-6.08966e-08
6.46979e-08
3.9275e-06
-5.95801e-08
6.82602e-08
3.91451e-06
-5.89764e-08
7.20329e-08
3.89903e-06
-5.94544e-08
7.50092e-08
3.8835e-06
-6.1615e-08
7.71454e-08
3.87062e-06
-6.56105e-08
7.84896e-08
3.86211e-06
-7.0773e-08
7.92832e-08
3.85862e-06
-7.65046e-08
7.99986e-08
3.85923e-06
-8.15041e-08
8.08945e-08
3.86272e-06
-8.54095e-08
8.19174e-08
3.86781e-06
-8.82496e-08
8.31634e-08
3.8725e-06
-8.93385e-08
8.46462e-08
3.87556e-06
-8.93255e-08
8.62746e-08
3.87646e-06
-8.86715e-08
8.7768e-08
3.87608e-06
-8.84801e-08
8.88579e-08
3.87575e-06
-8.90967e-08
8.94271e-08
3.87622e-06
-9.00529e-08
8.9591e-08
3.87754e-06
-9.08712e-08
8.95562e-08
3.87899e-06
-9.04757e-08
8.90178e-08
3.88056e-06
-8.87141e-08
8.69186e-08
-8.5766e-08
8.39194e-08
5.31458e-06
-5.31095e-06
-3.39908e-07
2.55229e-07
5.31394e-06
-3.33815e-07
2.59001e-07
5.30833e-06
-3.27681e-07
2.62386e-07
5.30041e-06
-3.23612e-07
2.64679e-07
5.2927e-06
-3.22304e-07
2.65521e-07
5.28859e-06
-3.24276e-07
2.64989e-07
5.28899e-06
-3.27902e-07
2.63593e-07
5.29563e-06
-3.31808e-07
2.62318e-07
5.30448e-06
-3.34206e-07
2.61655e-07
5.31347e-06
-3.34102e-07
2.62463e-07
5.31845e-06
-3.31355e-07
2.64596e-07
5.31754e-06
-3.26667e-07
2.67515e-07
5.3111e-06
-3.21788e-07
2.70113e-07
5.30086e-06
-3.18977e-07
2.71416e-07
5.29055e-06
-3.1867e-07
2.71236e-07
5.28326e-06
-3.21495e-07
2.6964e-07
5.28147e-06
-3.25782e-07
2.67445e-07
5.28701e-06
-3.30349e-07
2.65519e-07
5.29732e-06
-3.33399e-07
2.64079e-07
5.30742e-06
-3.35677e-07
2.64088e-07
5.31652e-06
-3.3385e-07
2.6585e-07
5.32066e-06
-3.30473e-07
2.6764e-07
5.31968e-06
-3.2718e-07
2.68699e-07
5.3157e-06
-3.25958e-07
2.68323e-07
5.31122e-06
-3.27444e-07
2.66316e-07
5.30924e-06
-3.31793e-07
2.63002e-07
5.31126e-06
-3.37512e-07
2.5899e-07
5.31791e-06
-3.43351e-07
2.55197e-07
5.3272e-06
-3.47131e-07
2.52437e-07
5.33577e-06
-3.48131e-07
2.51314e-07
5.34059e-06
-3.46039e-07
2.51875e-07
5.33947e-06
-3.4172e-07
2.53517e-07
5.33259e-06
-3.36966e-07
2.5518e-07
5.32214e-06
-3.34016e-07
2.55981e-07
5.31088e-06
-3.335e-07
2.5567e-07
5.30223e-06
-3.35834e-07
2.54434e-07
5.29813e-06
-3.39481e-07
2.5271e-07
5.29955e-06
-3.4323e-07
2.51332e-07
5.30476e-06
-3.44963e-07
2.51043e-07
-3.43927e-07
2.52377e-07
6.61041e-06
-6.60539e-06
-6.58032e-07
3.131e-07
6.60853e-06
-6.50584e-07
3.18646e-07
6.59988e-06
-6.42539e-07
3.23513e-07
6.58769e-06
-6.37514e-07
3.26093e-07
6.5762e-06
-6.36746e-07
3.25927e-07
6.56944e-06
-6.41036e-07
3.23526e-07
6.56953e-06
-6.48032e-07
3.20041e-07
6.57665e-06
-6.55753e-07
3.16825e-07
6.58801e-06
-6.60766e-07
3.15195e-07
6.59958e-06
-6.61842e-07
3.16175e-07
6.6065e-06
-6.58118e-07
3.19838e-07
6.60631e-06
-6.5138e-07
3.24904e-07
6.5992e-06
-6.4391e-07
3.29225e-07
6.58837e-06
-6.39329e-07
3.31189e-07
6.57825e-06
-6.38911e-07
3.30355e-07
6.57296e-06
-6.43432e-07
3.27225e-07
6.57475e-06
-6.50539e-07
3.22968e-07
6.58376e-06
-6.58279e-07
3.1892e-07
6.5973e-06
-6.63293e-07
3.16357e-07
6.61205e-06
-6.64383e-07
3.16282e-07
6.62077e-06
-6.60983e-07
3.18414e-07
6.62234e-06
-6.54196e-07
3.22149e-07
6.61673e-06
-6.46752e-07
3.25182e-07
6.6071e-06
-6.42251e-07
3.2592e-07
6.59733e-06
-6.41766e-07
3.24096e-07
6.59185e-06
-6.46335e-07
3.20017e-07
6.59288e-06
-6.53486e-07
3.14941e-07
6.60047e-06
-6.61197e-07
3.1026e-07
6.61201e-06
-6.66e-07
3.07328e-07
6.62331e-06
-6.66651e-07
3.07224e-07
6.62945e-06
-6.6228e-07
3.101e-07
6.62792e-06
-6.54803e-07
3.14608e-07
6.61898e-06
-6.46588e-07
3.18558e-07
6.60585e-06
-6.41258e-07
3.2038e-07
6.59277e-06
-6.40065e-07
3.19642e-07
6.58407e-06
-6.43928e-07
3.16795e-07
6.58204e-06
-6.50446e-07
3.12997e-07
6.58685e-06
-6.57643e-07
3.09598e-07
6.59598e-06
-6.62055e-07
3.07963e-07
-6.62447e-07
3.09115e-07
7.89613e-06
-7.88883e-06
-9.86158e-07
3.20826e-07
7.89381e-06
-9.76745e-07
3.28482e-07
7.88324e-06
-9.66971e-07
3.34999e-07
7.86828e-06
-9.60392e-07
3.37838e-07
7.85442e-06
-9.59576e-07
3.36691e-07
7.8459e-06
-9.65088e-07
3.32573e-07
7.84628e-06
-9.75366e-07
3.26961e-07
7.85568e-06
-9.86778e-07
3.21623e-07
7.87074e-06
-9.94329e-07
3.18498e-07
7.88533e-06
-9.95537e-07
3.19107e-07
7.89399e-06
-9.90775e-07
3.24001e-07
7.89273e-06
-9.81465e-07
3.31339e-07
7.88301e-06
-9.71708e-07
3.37518e-07
7.86875e-06
-9.65079e-07
3.40005e-07
7.85553e-06
-9.64176e-07
3.38486e-07
7.8477e-06
-9.69581e-07
3.33979e-07
7.84894e-06
-9.79743e-07
3.27963e-07
7.85947e-06
-9.91017e-07
3.22203e-07
7.87594e-06
-9.98378e-07
3.18621e-07
7.89216e-06
-9.9934e-07
3.18725e-07
7.90245e-06
-9.94305e-07
3.23033e-07
7.90298e-06
-9.8456e-07
3.29829e-07
7.89497e-06
-9.74205e-07
3.35467e-07
7.88214e-06
-9.66837e-07
3.37415e-07
7.87001e-06
-9.65039e-07
3.35402e-07
7.86273e-06
-9.69463e-07
3.30407e-07
7.86389e-06
-9.78586e-07
3.2394e-07
7.87367e-06
-9.88804e-07
3.17823e-07
7.88874e-06
-9.95126e-07
3.14059e-07
7.90295e-06
-9.95076e-07
3.14209e-07
7.91093e-06
-9.89055e-07
3.18796e-07
7.90867e-06
-9.78513e-07
3.25964e-07
7.89761e-06
-9.67606e-07
3.32077e-07
7.88169e-06
-9.59936e-07
3.34601e-07
7.8665e-06
-9.58107e-07
3.33226e-07
7.85636e-06
-9.62724e-07
3.2894e-07
7.85494e-06
-9.72254e-07
3.23226e-07
7.86251e-06
-9.83083e-07
3.17871e-07
7.87582e-06
-9.90211e-07
3.14841e-07
-9.91116e-07
3.15659e-07
9.18983e-06
-9.18088e-06
3.02642e-07
-1.29775e-06
9.18736e-06
3.12214e-07
-1.28648e-06
9.17469e-06
3.19958e-07
-1.27427e-06
9.15693e-06
3.22917e-07
-1.26555e-06
9.14004e-06
3.21032e-07
-1.26372e-06
9.1294e-06
3.15587e-07
-1.27004e-06
9.12972e-06
3.08327e-07
-1.28401e-06
9.14184e-06
3.01461e-07
-1.30036e-06
9.15975e-06
2.9727e-07
-1.30951e-06
9.17722e-06
2.97789e-07
-1.31079e-06
9.1868e-06
3.04042e-07
-1.30439e-06
9.18483e-06
3.13442e-07
-1.29294e-06
9.17259e-06
3.21e-07
-1.28047e-06
9.15521e-06
3.2376e-07
-1.27146e-06
9.13873e-06
3.21655e-07
-1.26935e-06
9.12862e-06
3.15965e-07
-1.27544e-06
9.12968e-06
3.08436e-07
-1.28924e-06
9.14283e-06
3.01276e-07
-1.30544e-06
9.16199e-06
2.96759e-07
-1.3143e-06
9.18088e-06
2.96923e-07
-1.31515e-06
9.19193e-06
3.0281e-07
-1.30817e-06
9.19143e-06
3.11858e-07
-1.29592e-06
9.18054e-06
3.19099e-07
-1.28241e-06
9.16428e-06
3.2159e-07
-1.27217e-06
9.14861e-06
3.19263e-07
-1.26863e-06
9.13891e-06
3.13395e-07
-1.27316e-06
9.13993e-06
3.05759e-07
-1.28537e-06
9.15258e-06
2.98578e-07
-1.30003e-06
9.17085e-06
2.94167e-07
-1.30756e-06
9.18849e-06
2.94568e-07
-1.30729e-06
9.19805e-06
3.00798e-07
-1.29942e-06
9.19587e-06
3.10253e-07
-1.28659e-06
9.18319e-06
3.17939e-07
-1.27287e-06
9.16513e-06
3.20888e-07
-1.26276e-06
9.1477e-06
3.1902e-07
-1.2597e-06
9.13635e-06
3.13614e-07
-1.26498e-06
9.13582e-06
3.06416e-07
-1.27815e-06
9.14707e-06
2.99633e-07
-1.29396e-06
9.16415e-06
2.95562e-07
-1.30285e-06
2.96231e-07
-1.30408e-06
3.90186e-06
-3.89941e-06
-1.88729e-07
2.66269e-07
3.89993e-06
-1.88011e-07
2.66498e-07
3.89408e-06
-1.87523e-07
2.66398e-07
3.88594e-06
-1.88395e-07
2.65207e-07
3.87865e-06
-1.9066e-07
2.63069e-07
3.87285e-06
-1.93319e-07
2.6012e-07
3.87128e-06
-1.96083e-07
2.56692e-07
3.8724e-06
-1.98976e-07
2.53252e-07
3.87773e-06
-2.01515e-07
2.50792e-07
3.88391e-06
-2.03568e-07
2.50119e-07
3.88892e-06
-2.04023e-07
2.51331e-07
3.89075e-06
-2.03598e-07
2.53723e-07
3.88918e-06
-2.02831e-07
2.56203e-07
3.88542e-06
-2.02723e-07
2.57815e-07
3.88155e-06
-2.0318e-07
2.58007e-07
3.8789e-06
-2.03147e-07
2.57471e-07
3.87711e-06
-2.02888e-07
2.56325e-07
3.8783e-06
-2.02622e-07
2.55489e-07
3.88328e-06
-2.02107e-07
2.5611e-07
3.88993e-06
-2.00819e-07
2.58293e-07
3.89371e-06
-1.98462e-07
2.61718e-07
3.89467e-06
-1.95123e-07
2.65877e-07
3.89182e-06
-1.91734e-07
2.69593e-07
3.88672e-06
-1.8963e-07
2.71868e-07
3.88178e-06
-1.89031e-07
2.72467e-07
3.87847e-06
-1.88982e-07
2.71575e-07
3.87803e-06
-1.89422e-07
2.69854e-07
3.88111e-06
-1.90053e-07
2.67875e-07
3.88681e-06
-1.90399e-07
2.66612e-07
3.89312e-06
-1.90065e-07
2.66917e-07
3.89731e-06
-1.88397e-07
2.68851e-07
3.89785e-06
-1.86083e-07
2.71818e-07
3.89464e-06
-1.83753e-07
2.74737e-07
3.88952e-06
-1.82629e-07
2.76597e-07
3.88498e-06
-1.82993e-07
2.76964e-07
3.88259e-06
-1.83947e-07
2.7593e-07
3.88342e-06
-1.85221e-07
2.73949e-07
3.8877e-06
-1.86611e-07
2.71347e-07
3.89384e-06
-1.88011e-07
2.68787e-07
-1.88998e-07
2.66968e-07
5.28315e-06
-5.27779e-06
-4.24787e-07
4.85919e-07
5.2817e-06
-4.19953e-07
4.92396e-07
5.27374e-06
-4.15071e-07
4.97892e-07
5.26243e-06
-4.12726e-07
5.00318e-07
5.25134e-06
-4.13332e-07
4.9928e-07
5.24462e-06
-4.17022e-07
4.9542e-07
5.24451e-06
-4.22457e-07
4.90068e-07
5.25156e-06
-4.2869e-07
4.84982e-07
5.26302e-06
-4.33341e-07
4.82025e-07
5.27438e-06
-4.3501e-07
4.82541e-07
5.2812e-06
-4.32969e-07
4.86727e-07
5.28048e-06
-4.28236e-07
4.92866e-07
5.27274e-06
-4.23151e-07
4.98178e-07
5.26111e-06
-4.20263e-07
5.00585e-07
5.24948e-06
-4.19996e-07
4.99674e-07
5.24245e-06
-4.22562e-07
4.96083e-07
5.24264e-06
-4.2675e-07
4.91119e-07
5.25077e-06
-4.31702e-07
4.86469e-07
5.2639e-06
-4.35029e-07
4.83864e-07
5.27622e-06
-4.35423e-07
4.84607e-07
5.28613e-06
-4.31657e-07
4.8913e-07
5.28881e-06
-4.25511e-07
4.95344e-07
5.28471e-06
-4.19285e-07
5.00354e-07
5.27676e-06
-4.15525e-07
5.02165e-07
5.26837e-06
-4.14711e-07
5.00385e-07
5.26375e-06
-4.17047e-07
4.95685e-07
5.26504e-06
-4.21151e-07
4.89429e-07
5.27274e-06
-4.26049e-07
4.83492e-07
5.28431e-06
-4.29323e-07
4.79787e-07
5.29551e-06
-4.29665e-07
4.79714e-07
5.30185e-06
-4.26352e-07
4.83485e-07
5.30041e-06
-4.20484e-07
4.89361e-07
5.2918e-06
-4.14477e-07
4.94511e-07
5.27923e-06
-4.10926e-07
4.9685e-07
5.26632e-06
-4.10329e-07
4.95916e-07
5.25741e-06
-4.12923e-07
4.92317e-07
5.25486e-06
-4.17281e-07
4.87316e-07
5.25939e-06
-4.22493e-07
4.82686e-07
5.26844e-06
-4.26244e-07
4.80225e-07
-4.27238e-07
4.81267e-07
6.57465e-06
-6.56762e-06
-7.08459e-07
5.89743e-07
6.57188e-06
-7.0049e-07
6.01946e-07
6.56053e-06
-6.92096e-07
6.11891e-07
6.5452e-06
-6.87236e-07
6.15928e-07
6.53101e-06
-6.87009e-07
6.13797e-07
6.52265e-06
-6.92117e-07
6.06986e-07
6.52293e-06
-7.00407e-07
5.9771e-07
6.53207e-06
-7.09827e-07
5.88823e-07
6.5469e-06
-7.16512e-07
5.83528e-07
6.56203e-06
-7.18534e-07
5.84571e-07
6.5706e-06
-7.14514e-07
5.9281e-07
6.56925e-06
-7.06682e-07
6.047e-07
6.55921e-06
-6.98229e-07
6.14347e-07
6.54514e-06
-6.93125e-07
6.18114e-07
6.53226e-06
-6.92492e-07
6.15737e-07
6.52531e-06
-6.97068e-07
6.08674e-07
6.52716e-06
-7.04738e-07
5.99106e-07
6.53801e-06
-7.13478e-07
5.89848e-07
6.55468e-06
-7.19431e-07
5.84085e-07
6.57166e-06
-7.20672e-07
5.84551e-07
6.58206e-06
-7.1579e-07
5.92146e-07
6.58242e-06
-7.07043e-07
6.03319e-07
6.57381e-06
-6.9772e-07
6.12218e-07
6.5608e-06
-6.91816e-07
6.15221e-07
6.54854e-06
-6.90453e-07
6.12094e-07
6.5416e-06
-6.94397e-07
6.04307e-07
6.54278e-06
-7.01498e-07
5.94101e-07
6.55233e-06
-7.09711e-07
5.84371e-07
6.56715e-06
-7.15179e-07
5.78368e-07
6.58184e-06
-7.15996e-07
5.78861e-07
6.58965e-06
-7.108e-07
5.86739e-07
6.5872e-06
-7.01867e-07
5.98438e-07
6.57567e-06
-6.92427e-07
6.08031e-07
6.55974e-06
-6.86483e-07
6.11866e-07
6.54458e-06
-6.85186e-07
6.09659e-07
6.53488e-06
-6.89291e-07
6.0286e-07
6.53358e-06
-6.96655e-07
5.9367e-07
6.54101e-06
-7.05259e-07
5.84938e-07
6.55413e-06
-7.11274e-07
5.79869e-07
-7.12799e-07
5.81193e-07
7.85719e-06
-7.84778e-06
-1.01167e-06
6.14627e-07
7.85368e-06
-1.00151e-06
6.33006e-07
7.84017e-06
-9.9096e-07
6.47373e-07
7.82205e-06
-9.83905e-07
6.52634e-07
7.80542e-06
-9.82838e-07
6.49149e-07
7.79514e-06
-9.88414e-07
6.39145e-07
7.79547e-06
-9.9927e-07
6.25498e-07
7.80686e-06
-1.01167e-06
6.12078e-07
7.82569e-06
-1.02036e-06
6.03521e-07
7.84435e-06
-1.02232e-06
6.04227e-07
7.85477e-06
-1.0174e-06
6.16469e-07
7.85211e-06
-1.00724e-06
6.34552e-07
7.83932e-06
-9.96566e-07
6.48641e-07
7.82185e-06
-9.89295e-07
6.53644e-07
7.80588e-06
-9.87951e-07
6.49914e-07
7.79635e-06
-9.93224e-07
6.39664e-07
7.79759e-06
-1.00377e-06
6.25756e-07
7.8101e-06
-1.01583e-06
6.12044e-07
7.83023e-06
-1.0241e-06
6.03154e-07
7.85033e-06
-1.02553e-06
6.03487e-07
7.86221e-06
-1.01997e-06
6.15332e-07
7.86101e-06
-1.00903e-06
6.33018e-07
7.84956e-06
-9.97496e-07
6.46696e-07
7.83316e-06
-9.8929e-07
6.51279e-07
7.81793e-06
-9.86952e-07
6.47134e-07
7.80866e-06
-9.91205e-07
6.36486e-07
7.8096e-06
-1.00074e-06
6.22238e-07
7.82125e-06
-1.01184e-06
6.08296e-07
7.84004e-06
-1.01925e-06
5.99335e-07
7.85841e-06
-1.01995e-06
5.99788e-07
7.86829e-06
-1.01382e-06
6.11923e-07
7.86488e-06
-1.00251e-06
6.30024e-07
7.85109e-06
-9.90802e-07
6.44233e-07
7.83237e-06
-9.82611e-07
6.4945e-07
7.81488e-06
-9.80474e-07
6.46009e-07
7.80351e-06
-9.85091e-07
6.36106e-07
7.80259e-06
-9.95125e-07
6.2261e-07
7.81268e-06
-1.00687e-06
6.0939e-07
7.83025e-06
-1.01508e-06
6.01082e-07
-1.01674e-06
6.0208e-07
9.14485e-06
-9.13404e-06
5.88035e-07
-1.30787e-06
9.1411e-06
6.1094e-07
-1.29649e-06
9.12566e-06
6.28288e-07
-1.28385e-06
9.10499e-06
6.34204e-07
-1.27452e-06
9.08554e-06
6.29694e-07
-1.27205e-06
9.0733e-06
6.17419e-07
-1.27801e-06
9.07369e-06
6.00658e-07
-1.29199e-06
9.08779e-06
5.84051e-07
-1.30837e-06
9.10948e-06
5.73131e-07
-1.31791e-06
9.13103e-06
5.73584e-07
-1.31966e-06
9.14229e-06
5.88922e-07
-1.31354e-06
9.13891e-06
6.11603e-07
-1.30202e-06
9.12377e-06
6.2874e-07
-1.28917e-06
9.10337e-06
6.34448e-07
-1.27959e-06
9.08424e-06
6.29724e-07
-1.27689e-06
9.07245e-06
6.17217e-07
-1.28269e-06
9.07349e-06
6.00201e-07
-1.29657e-06
9.0885e-06
5.83309e-07
-1.31287e-06
9.11129e-06
5.72072e-07
-1.3222e-06
9.13406e-06
5.72192e-07
-1.32357e-06
9.14658e-06
5.87209e-07
-1.31689e-06
9.14443e-06
6.09594e-07
-1.30462e-06
9.13039e-06
6.26461e-07
-1.29082e-06
9.1109e-06
6.31935e-07
-1.28015e-06
9.09241e-06
6.27023e-07
-1.27622e-06
9.0809e-06
6.14387e-07
-1.28069e-06
9.08181e-06
5.97323e-07
-1.29322e-06
9.09629e-06
5.80488e-07
-1.30823e-06
9.11823e-06
5.69439e-07
-1.31645e-06
9.1399e-06
5.69877e-07
-1.31693e-06
9.15115e-06
5.85316e-07
-1.30959e-06
9.14762e-06
6.08192e-07
-1.29692e-06
9.13217e-06
6.25606e-07
-1.28302e-06
9.1113e-06
6.31665e-07
-1.27251e-06
9.09149e-06
6.27348e-07
-1.26899e-06
9.07874e-06
6.15293e-07
-1.27403e-06
9.07852e-06
5.98769e-07
-1.28725e-06
9.09197e-06
5.82408e-07
-1.30309e-06
9.11304e-06
5.71744e-07
-1.31233e-06
5.72454e-07
-1.31397e-06
3.88517e-06
-3.87967e-06
-2.19441e-07
4.80212e-07
3.8826e-06
-2.16054e-07
4.85126e-07
3.87227e-06
-2.12795e-07
4.89517e-07
3.85798e-06
-2.1157e-07
4.91062e-07
3.84485e-06
-2.12816e-07
4.89016e-07
3.83677e-06
-2.15692e-07
4.83896e-07
3.83562e-06
-2.19476e-07
4.77315e-07
3.84134e-06
-2.23438e-07
4.7097e-07
3.85214e-06
-2.26765e-07
4.66756e-07
3.86409e-06
-2.2815e-07
4.6632e-07
3.87185e-06
-2.26465e-07
4.70033e-07
3.87222e-06
-2.23007e-07
4.76362e-07
3.86539e-06
-2.19431e-07
4.8246e-07
3.85501e-06
-2.17649e-07
4.85844e-07
3.84551e-06
-2.18116e-07
4.85627e-07
3.84064e-06
-2.19967e-07
4.82301e-07
3.84199e-06
-2.22538e-07
4.77516e-07
3.84965e-06
-2.25173e-07
4.73e-07
3.86223e-06
-2.27078e-07
4.70601e-07
3.87577e-06
-2.27053e-07
4.71806e-07
3.88469e-06
-2.24099e-07
4.76889e-07
3.88581e-06
-2.19515e-07
4.84275e-07
3.87931e-06
-2.15015e-07
4.91105e-07
3.86884e-06
-2.12565e-07
4.94894e-07
3.85916e-06
-2.1262e-07
4.94769e-07
3.8538e-06
-2.14298e-07
4.91229e-07
3.85457e-06
-2.1683e-07
4.85915e-07
3.86143e-06
-2.19523e-07
4.80534e-07
3.8726e-06
-2.21614e-07
4.77054e-07
3.88424e-06
-2.21874e-07
4.77145e-07
3.8911e-06
-2.19247e-07
4.81238e-07
3.89012e-06
-2.15053e-07
4.8784e-07
3.88172e-06
-2.10977e-07
4.94115e-07
3.86967e-06
-2.08944e-07
4.97587e-07
3.8587e-06
-2.094e-07
4.97338e-07
3.8523e-06
-2.11462e-07
4.93781e-07
3.85227e-06
-2.14376e-07
4.88355e-07
3.85848e-06
-2.17517e-07
4.82653e-07
3.86898e-06
-2.20229e-07
4.78513e-07
-2.21261e-07
4.77537e-07
5.2518e-06
-5.24316e-06
-4.74487e-07
7.32325e-07
5.24792e-06
-4.66313e-07
7.46531e-07
5.23373e-06
-4.58461e-07
7.57745e-07
5.21523e-06
-4.54547e-07
7.61799e-07
5.19836e-06
-4.55121e-07
7.58448e-07
5.18881e-06
-4.60162e-07
7.49437e-07
5.18966e-06
-4.67799e-07
7.37546e-07
5.20131e-06
-4.76484e-07
7.26376e-07
5.21974e-06
-4.82995e-07
7.19825e-07
5.23794e-06
-4.84933e-07
7.21117e-07
5.24793e-06
-4.80824e-07
7.31098e-07
5.24517e-06
-4.72596e-07
7.45218e-07
5.23188e-06
-4.64484e-07
7.5652e-07
5.21413e-06
-4.60129e-07
7.60815e-07
5.19797e-06
-4.60111e-07
7.57827e-07
5.18925e-06
-4.64434e-07
7.49269e-07
5.19117e-06
-4.7124e-07
7.37891e-07
5.20422e-06
-4.78989e-07
7.27235e-07
5.22434e-06
-4.84474e-07
7.21144e-07
5.24444e-06
-4.85343e-07
7.22793e-07
5.25661e-06
-4.80169e-07
7.33024e-07
5.25616e-06
-4.70963e-07
7.47241e-07
5.24509e-06
-4.62008e-07
7.58411e-07
5.22929e-06
-4.5695e-07
7.62352e-07
5.2146e-06
-4.56366e-07
7.58816e-07
5.20666e-06
-4.60237e-07
7.49562e-07
5.20855e-06
-4.66687e-07
7.37388e-07
5.22075e-06
-4.74175e-07
7.2594e-07
5.2393e-06
-4.79529e-07
7.19154e-07
5.25725e-06
-4.80395e-07
7.20276e-07
5.26668e-06
-4.75344e-07
7.30155e-07
5.26308e-06
-4.66328e-07
7.44234e-07
5.24866e-06
-4.57594e-07
7.5554e-07
5.22947e-06
-4.52779e-07
7.59877e-07
5.21148e-06
-4.52458e-07
7.56952e-07
5.20049e-06
-4.56617e-07
7.4846e-07
5.19971e-06
-4.63403e-07
7.37119e-07
5.2097e-06
-4.71312e-07
7.26494e-07
5.22649e-06
-4.77217e-07
7.20426e-07
-4.78762e-07
7.22098e-07
6.5387e-06
-6.52772e-06
-7.58522e-07
8.62792e-07
6.53287e-06
-7.47329e-07
8.88795e-07
6.51442e-06
-7.36101e-07
9.07986e-07
6.49143e-06
-7.2982e-07
9.14189e-07
6.47114e-06
-7.29472e-07
9.0844e-07
6.45969e-06
-7.35533e-07
8.93808e-07
6.46095e-06
-7.45678e-07
8.7432e-07
6.47541e-06
-7.57515e-07
8.55395e-07
6.49888e-06
-7.66496e-07
8.43566e-07
6.52284e-06
-7.6957e-07
8.45241e-07
6.53505e-06
-7.64001e-07
8.63783e-07
6.53038e-06
-7.52856e-07
8.89627e-07
6.51305e-06
-7.41528e-07
9.08716e-07
6.4912e-06
-7.35019e-07
9.14861e-07
6.47208e-06
-7.34337e-07
9.09078e-07
6.46188e-06
-7.39976e-07
8.94408e-07
6.46452e-06
-7.49623e-07
8.74848e-07
6.48047e-06
-7.60885e-07
8.55792e-07
6.50553e-06
-7.69207e-07
8.43761e-07
6.53112e-06
-7.71549e-07
8.45162e-07
6.54491e-06
-7.6518e-07
8.6337e-07
6.54166e-06
-7.53209e-07
8.8881e-07
6.5255e-06
-7.41057e-07
9.07427e-07
6.50445e-06
-7.33741e-07
9.13058e-07
6.48571e-06
-7.32281e-07
9.06752e-07
6.47538e-06
-7.37184e-07
8.91583e-07
6.47734e-06
-7.4615e-07
8.71597e-07
6.49211e-06
-7.56814e-07
8.52244e-07
6.51552e-06
-7.64655e-07
8.4008e-07
6.53911e-06
-7.66651e-07
8.41531e-07
6.55062e-06
-7.60082e-07
8.59959e-07
6.54498e-06
-7.48032e-07
8.85783e-07
6.52638e-06
-7.35908e-07
9.04942e-07
6.50294e-06
-7.28718e-07
9.11249e-07
6.4819e-06
-7.27472e-07
9.05708e-07
6.46947e-06
-7.32673e-07
8.91348e-07
6.46959e-06
-7.42022e-07
8.72171e-07
6.48281e-06
-7.53167e-07
8.53572e-07
6.50501e-06
-7.61602e-07
8.42061e-07
-7.64299e-07
8.44022e-07
7.81675e-06
-7.80348e-06
-1.05287e-06
8.95711e-07
7.80913e-06
-1.04092e-06
9.34209e-07
7.78789e-06
-1.02855e-06
9.61069e-07
7.76205e-06
-1.02036e-06
9.69015e-07
7.73941e-06
-1.01877e-06
9.61083e-07
7.72609e-06
-1.02437e-06
9.41301e-07
7.72735e-06
-1.03584e-06
9.14394e-07
7.74408e-06
-1.04939e-06
8.87228e-07
7.77197e-06
-1.05968e-06
8.68818e-07
7.80047e-06
-1.06301e-06
8.69174e-07
7.81448e-06
-1.05782e-06
8.96276e-07
7.80753e-06
-1.0459e-06
9.34548e-07
7.78688e-06
-1.03347e-06
9.61227e-07
7.76161e-06
-1.02513e-06
9.69022e-07
7.73958e-06
-1.02335e-06
9.60958e-07
7.72697e-06
-1.02875e-06
9.41043e-07
7.7291e-06
-1.03998e-06
9.13986e-07
7.74687e-06
-1.05325e-06
8.8664e-07
7.77596e-06
-1.06316e-06
8.68014e-07
7.80574e-06
-1.06598e-06
8.68134e-07
7.82103e-06
-1.06014e-06
8.95004e-07
7.81526e-06
-1.04746e-06
9.33031e-07
7.79564e-06
-1.03417e-06
9.59438e-07
7.77113e-06
-1.02491e-06
9.66949e-07
7.74953e-06
-1.02215e-06
9.5861e-07
7.73693e-06
-1.02655e-06
9.38451e-07
7.73863e-06
-1.03682e-06
9.11216e-07
7.75553e-06
-1.04922e-06
8.83799e-07
7.78337e-06
-1.0584e-06
8.65237e-07
7.81162e-06
-1.06067e-06
8.6556e-07
7.8252e-06
-1.05447e-06
8.92746e-07
7.81763e-06
-1.04162e-06
9.31183e-07
7.79618e-06
-1.02834e-06
9.58108e-07
7.76991e-06
-1.01923e-06
9.6623e-07
7.74666e-06
-1.01676e-06
9.58557e-07
7.73258e-06
-1.02157e-06
9.39083e-07
7.73298e-06
-1.03232e-06
9.12511e-07
7.7488e-06
-1.0453e-06
8.85696e-07
7.77581e-06
-1.05516e-06
8.67635e-07
-1.05821e-06
8.68321e-07
9.09634e-06
-9.08253e-06
8.58477e-07
-1.33712e-06
9.08806e-06
9.04621e-07
-1.32632e-06
9.06539e-06
9.35941e-07
-1.31354e-06
9.03798e-06
9.45001e-07
-1.30374e-06
9.01342e-06
9.36207e-07
-1.30072e-06
8.99876e-06
9.13775e-07
-1.30606e-06
9.00024e-06
8.82593e-07
-1.31925e-06
9.01926e-06
8.5034e-07
-1.3347e-06
9.04932e-06
8.27406e-07
-1.34402e-06
9.08013e-06
8.26262e-07
-1.3465e-06
9.09426e-06
8.58555e-07
-1.34158e-06
9.08623e-06
9.04467e-07
-1.33074e-06
9.06378e-06
9.35592e-07
-1.31787e-06
9.03657e-06
9.44474e-07
-1.30795e-06
9.01227e-06
9.35503e-07
-1.30483e-06
8.99799e-06
9.12884e-07
-1.31013e-06
9.00005e-06
8.81494e-07
-1.32333e-06
9.01987e-06
8.49009e-07
-1.33878e-06
9.05092e-06
8.25824e-07
-1.34796e-06
9.08282e-06
8.24435e-07
-1.35011e-06
9.09803e-06
8.56536e-07
-1.34468e-06
9.09102e-06
9.02287e-07
-1.33314e-06
9.06945e-06
9.33266e-07
-1.3194e-06
9.04291e-06
9.42028e-07
-1.30847e-06
9.01903e-06
9.3298e-07
-1.30422e-06
9.00485e-06
9.10341e-07
-1.30833e-06
9.00667e-06
8.79011e-07
-1.32033e-06
9.02593e-06
8.46685e-07
-1.33467e-06
9.05614e-06
8.23773e-07
-1.34295e-06
9.08702e-06
8.22763e-07
-1.34443e-06
9.10111e-06
8.55308e-07
-1.33856e-06
9.09295e-06
9.01549e-07
-1.32682e-06
9.07026e-06
9.33075e-07
-1.31311e-06
9.04269e-06
9.42428e-07
-1.30242e-06
9.01786e-06
9.33984e-07
-1.29857e-06
9.00283e-06
9.1193e-07
-1.30318e-06
9.00389e-06
8.81135e-07
-1.31575e-06
9.02246e-06
8.49263e-07
-1.33072e-06
9.0521e-06
8.26698e-07
-1.33974e-06
8.25894e-07
-1.34208e-06
3.87572e-06
-3.86242e-06
-2.45872e-07
7.1278e-07
3.87166e-06
-2.38289e-07
7.27474e-07
3.8523e-06
-2.31408e-07
7.40285e-07
3.82629e-06
-2.28353e-07
7.45426e-07
3.80285e-06
-2.29574e-07
7.42027e-07
3.78872e-06
-2.33909e-07
7.31932e-07
3.78799e-06
-2.40249e-07
7.18294e-07
3.80129e-06
-2.47247e-07
7.04919e-07
3.82482e-06
-2.52977e-07
6.96207e-07
3.84993e-06
-2.5481e-07
6.96012e-07
3.86496e-06
-2.50662e-07
7.05665e-07
3.86316e-06
-2.43051e-07
7.21219e-07
3.84652e-06
-2.36022e-07
7.35115e-07
3.82354e-06
-2.32698e-07
7.4152e-07
3.8032e-06
-2.33508e-07
7.39477e-07
3.79201e-06
-2.37271e-07
7.30762e-07
3.79391e-06
-2.42872e-07
7.18482e-07
3.80951e-06
-2.49024e-07
7.0642e-07
3.83505e-06
-2.53848e-07
6.98913e-07
3.86184e-06
-2.5476e-07
6.99767e-07
3.87819e-06
-2.49737e-07
7.10281e-07
3.8773e-06
-2.41338e-07
7.26497e-07
3.86116e-06
-2.33618e-07
7.40862e-07
3.83828e-06
-2.2972e-07
7.47486e-07
3.8177e-06
-2.30077e-07
7.45427e-07
3.80594e-06
-2.3349e-07
7.36474e-07
3.80693e-06
-2.38837e-07
7.23765e-07
3.82119e-06
-2.44835e-07
7.11105e-07
3.84497e-06
-2.49652e-07
7.02922e-07
3.8697e-06
-2.50685e-07
7.03096e-07
3.88381e-06
-2.45875e-07
7.13002e-07
3.88068e-06
-2.3776e-07
7.28736e-07
3.86239e-06
-2.30365e-07
7.42764e-07
3.83757e-06
-2.268e-07
7.49201e-07
3.81532e-06
-2.27484e-07
7.47074e-07
3.80219e-06
-2.31214e-07
7.38118e-07
3.80206e-06
-2.369e-07
7.25383e-07
3.81542e-06
-2.43295e-07
7.12586e-07
3.83844e-06
-2.48583e-07
7.04082e-07
-2.50138e-07
7.03691e-07
5.22709e-06
-5.21189e-06
-5.20367e-07
9.91614e-07
5.21707e-06
-5.05548e-07
1.02381e-06
5.18936e-06
-4.92504e-07
1.04654e-06
5.15625e-06
-4.86349e-07
1.05291e-06
5.12783e-06
-4.87184e-07
1.04448e-06
5.11269e-06
-4.94484e-07
1.02515e-06
5.11578e-06
-5.05987e-07
1.00018e-06
5.1378e-06
-5.19419e-07
9.76531e-07
5.17244e-06
-5.30107e-07
9.62315e-07
5.20681e-06
-5.33396e-07
9.65332e-07
5.22319e-06
-5.25501e-07
9.89555e-07
5.2143e-06
-5.1071e-07
1.02177e-06
5.18767e-06
-4.97554e-07
1.04468e-06
5.1556e-06
-4.91161e-07
1.05134e-06
5.12826e-06
-4.91643e-07
1.04331e-06
5.11428e-06
-4.98471e-07
1.02445e-06
5.1187e-06
-5.0938e-07
9.99975e-07
5.14222e-06
-5.22114e-07
9.76806e-07
5.1785e-06
-5.32013e-07
9.63019e-07
5.2146e-06
-5.34449e-07
9.66381e-07
5.2327e-06
-5.25673e-07
9.90866e-07
5.2254e-06
-5.10014e-07
1.02321e-06
5.20016e-06
-4.9604e-07
1.04607e-06
5.16913e-06
-4.88894e-07
1.05255e-06
5.14235e-06
-4.88695e-07
1.04421e-06
5.1284e-06
-4.94924e-07
1.02495e-06
5.13225e-06
-5.05338e-07
1.00003e-06
5.15464e-06
-5.17702e-07
9.76421e-07
5.18927e-06
-5.27382e-07
9.6225e-07
5.2233e-06
-5.29755e-07
9.65321e-07
5.23902e-06
-5.21058e-07
9.89616e-07
5.22917e-06
-5.0559e-07
1.02191e-06
5.20131e-06
-4.91874e-07
1.0449e-06
5.16772e-06
-4.85027e-07
1.0517e-06
5.13853e-06
-4.85153e-07
1.04381e-06
5.1224e-06
-4.9173e-07
1.0251e-06
5.1244e-06
-5.02529e-07
1.00075e-06
5.14527e-06
-5.15328e-07
9.77662e-07
5.17872e-06
-5.2551e-07
9.63905e-07
-5.28448e-07
9.67238e-07
6.50633e-06
-6.48857e-06
-8.11091e-07
1.13576e-06
6.49148e-06
-7.93526e-07
1.19162e-06
6.45756e-06
-7.77387e-07
1.22679e-06
6.41936e-06
-7.68773e-07
1.23481e-06
6.38726e-06
-7.6791e-07
1.22127e-06
6.36985e-06
-7.75042e-07
1.19177e-06
6.37309e-06
-7.87982e-07
1.15307e-06
6.39849e-06
-8.04155e-07
1.11473e-06
6.44061e-06
-8.17996e-07
1.08934e-06
6.48468e-06
-8.24084e-07
1.09185e-06
6.50339e-06
-8.15693e-07
1.13527e-06
6.48947e-06
-7.98232e-07
1.19106e-06
6.45649e-06
-7.82089e-07
1.22623e-06
6.41926e-06
-7.73377e-07
1.23431e-06
6.38819e-06
-7.72331e-07
1.22084e-06
6.3719e-06
-7.79195e-07
1.19142e-06
6.37636e-06
-7.9178e-07
1.15278e-06
6.40309e-06
-8.07505e-07
1.11446e-06
6.44661e-06
-8.20796e-07
1.08902e-06
6.4921e-06
-8.26235e-07
1.09146e-06
6.51211e-06
-8.17105e-07
1.13479e-06
6.49931e-06
-7.98838e-07
1.19044e-06
6.46718e-06
-7.81854e-07
1.22537e-06
6.43046e-06
-7.72288e-07
1.23318e-06
6.39949e-06
-7.704e-07
1.21943e-06
6.38286e-06
-7.76465e-07
1.18975e-06
6.38655e-06
-7.88329e-07
1.1509e-06
6.41208e-06
-8.03451e-07
1.11247e-06
6.45404e-06
-8.16295e-07
1.08703e-06
6.49769e-06
-8.21456e-07
1.08958e-06
6.51572e-06
-8.12219e-07
1.13309e-06
6.50091e-06
-7.93997e-07
1.189e-06
6.4668e-06
-7.77174e-07
1.22435e-06
6.4282e-06
-7.6786e-07
1.23268e-06
6.39551e-06
-7.66293e-07
1.21954e-06
6.37737e-06
-7.72731e-07
1.19049e-06
6.37978e-06
-7.85015e-07
1.15225e-06
6.40428e-06
-8.00605e-07
1.11435e-06
6.44545e-06
-8.13971e-07
1.08935e-06
-8.19707e-07
1.09216e-06
7.77556e-06
-7.75619e-06
-1.10006e-06
1.16532e-06
7.75683e-06
-1.08561e-06
1.24503e-06
7.71993e-06
-1.07042e-06
1.29099e-06
7.67983e-06
-1.06008e-06
1.30043e-06
7.64615e-06
-1.05675e-06
1.2836e-06
7.62701e-06
-1.06116e-06
1.24656e-06
7.62965e-06
-1.07251e-06
1.19629e-06
7.65649e-06
-1.08759e-06
1.14382e-06
7.70318e-06
-1.1012e-06
1.10533e-06
7.75385e-06
-1.10847e-06
1.10288e-06
7.77376e-06
-1.10403e-06
1.1647e-06
7.75552e-06
-1.0897e-06
1.24425e-06
7.7191e-06
-1.07455e-06
1.29012e-06
7.67948e-06
-1.06421e-06
1.29948e-06
7.64634e-06
-1.06084e-06
1.2826e-06
7.62785e-06
-1.06517e-06
1.24552e-06
7.63128e-06
-1.07641e-06
1.19518e-06
7.65908e-06
-1.09129e-06
1.14263e-06
7.70685e-06
-1.10458e-06
1.10403e-06
7.75866e-06
-1.11139e-06
1.10148e-06
7.77964e-06
-1.10635e-06
1.16326e-06
7.76233e-06
-1.09127e-06
1.24277e-06
7.72664e-06
-1.07526e-06
1.28854e-06
7.68748e-06
-1.06399e-06
1.29781e-06
7.65449e-06
-1.05964e-06
1.28084e-06
7.63578e-06
-1.063e-06
1.2437e-06
7.63864e-06
-1.07332e-06
1.19336e-06
7.66551e-06
-1.08742e-06
1.1409e-06
7.71207e-06
-1.10011e-06
1.1025e-06
7.76245e-06
-1.10652e-06
1.10023e-06
7.78194e-06
-1.10127e-06
1.16232e-06
7.76315e-06
-1.08618e-06
1.24216e-06
7.72604e-06
-1.07033e-06
1.28837e-06
7.68558e-06
-1.05933e-06
1.29816e-06
7.65144e-06
-1.05535e-06
1.28176e-06
7.63176e-06
-1.05914e-06
1.24518e-06
7.6338e-06
-1.06992e-06
1.19537e-06
7.66003e-06
-1.08451e-06
1.14337e-06
7.70611e-06
-1.09772e-06
1.10531e-06
-1.1047e-06
1.10323e-06
9.04142e-06
-9.02314e-06
1.11171e-06
-1.37158e-06
9.02212e-06
1.20255e-06
-1.36423e-06
8.98589e-06
1.25354e-06
-1.35178e-06
8.9467e-06
1.26465e-06
-1.34055e-06
8.91304e-06
1.24825e-06
-1.33513e-06
8.89353e-06
1.2095e-06
-1.33737e-06
8.89612e-06
1.15476e-06
-1.34727e-06
8.92365e-06
1.09536e-06
-1.36014e-06
8.97021e-06
1.04885e-06
-1.3692e-06
9.02144e-06
1.04111e-06
-1.37454e-06
9.03992e-06
1.11086e-06
-1.37482e-06
9.02077e-06
1.20148e-06
-1.36756e-06
8.98466e-06
1.25231e-06
-1.35516e-06
8.94562e-06
1.26328e-06
-1.34398e-06
8.91216e-06
1.24674e-06
-1.33862e-06
8.89297e-06
1.20785e-06
-1.34096e-06
8.89608e-06
1.15296e-06
-1.35098e-06
8.92434e-06
1.09339e-06
-1.36393e-06
8.97179e-06
1.04671e-06
-1.37292e-06
9.02398e-06
1.03883e-06
-1.37798e-06
9.04338e-06
1.10859e-06
-1.3778e-06
9.02502e-06
1.19925e-06
-1.36987e-06
8.98955e-06
1.25011e-06
-1.35664e-06
8.95093e-06
1.26114e-06
-1.34448e-06
8.91764e-06
1.24468e-06
-1.33806e-06
8.89836e-06
1.20591e-06
-1.33929e-06
8.90108e-06
1.15121e-06
-1.34824e-06
8.92868e-06
1.09192e-06
-1.36025e-06
8.97527e-06
1.04561e-06
-1.36853e-06
9.02647e-06
1.03817e-06
-1.37312e-06
9.04486e-06
1.10836e-06
-1.37271e-06
9.02555e-06
1.19943e-06