/*--------------------------------*- C++ -*----------------------------------*\
| =========                 |                                                 |
| \\      /  F ield         | OpenFOAM: The Open Source CFD Toolbox           |
|  \\    /   O peration     | Version:  2112                                  |
|   \\  /    A nd           | Website:  www.openfoam.com                      |
|    \\/     M anipulation  |                                                 |
\*---------------------------------------------------------------------------*/
FoamFile
{
    version     2.0;
    format      ascii;
    arch        "LSB;label=32;scalar=64";
    class       volVectorField;
    location    "1";
    object      U;
}
// * * * * * * * * * * * * * * * * * * * * * * * * * * * * * * * * * * * * * //

dimensions      [0 1 -1 0 0 0 0];

internalField   nonuniform List<vector> 
27200
(
(0.00160627 -0.00129485 -0.000122791)
(0.00111474 -0.00189057 -0.000672567)
(0.000549175 -0.00233367 -0.00130367)
(-5.04096e-05 -0.00261855 -0.00191571)
(-0.000627659 -0.00278226 -0.002376)
(-0.00119585 -0.0026904 -0.00283665)
(-0.00169221 -0.00238393 -0.00306198)
(-0.00212407 -0.00189085 -0.00338537)
(-0.00233107 -0.00128843 -0.00355396)
(-0.00234899 -0.00060391 -0.00375252)
(-0.00215666 6.77424e-05 -0.0039366)
(-0.00187306 0.000638714 -0.00415061)
(-0.00153904 0.0010628 -0.00435246)
(-0.00118373 0.00133584 -0.00464568)
(-0.000826323 0.00154091 -0.00471408)
(-0.000396247 0.00167788 -0.00456263)
(9.69264e-05 0.00185439 -0.00445433)
(0.000600405 0.00207474 -0.00399349)
(0.00100745 0.00220752 -0.00337025)
(0.00130435 0.00224663 -0.00275883)
(0.00154623 0.00236075 -0.00231237)
(0.00159838 0.00242966 -0.00182605)
(0.00149574 0.00251322 -0.00142838)
(0.00130624 0.00265236 -0.0011044)
(0.00109299 0.00281155 -0.000819843)
(0.000914641 0.00293368 -0.000539452)
(0.000810396 0.00295052 -0.000252239)
(0.000780968 0.00288902 3.77039e-05)
(0.000794139 0.00278221 0.000282489)
(0.000817662 0.00260508 0.00047257)
(0.000870238 0.00240586 0.000617069)
(0.000987369 0.00223475 0.000726152)
(0.0011825 0.00209535 0.00080729)
(0.00144337 0.00196431 0.000870879)
(0.00173273 0.00179874 0.000932873)
(0.00199099 0.00154492 0.0010148)
(0.00216162 0.00115687 0.00110564)
(0.00225144 0.00062527 0.00111829)
(0.00221244 8.25662e-07 0.00086629)
(0.00198205 -0.000652221 0.000428998)
(0.00472183 0.0124405 0.0103004)
(0.00632241 0.011353 0.010472)
(0.00783383 0.00992363 0.0106335)
(0.0092202 0.00820384 0.010763)
(0.0104303 0.00631351 0.0108483)
(0.0113895 0.00435839 0.0108936)
(0.0120681 0.0024399 0.0109107)
(0.0124298 0.000647656 0.0109276)
(0.0125071 -0.00100503 0.0109531)
(0.0122968 -0.00257283 0.0110146)
(0.0117615 -0.00410954 0.0111101)
(0.0108468 -0.00564505 0.0112217)
(0.009556 -0.00716034 0.0113159)
(0.00793289 -0.00860167 0.0113611)
(0.0060776 -0.00988952 0.0113521)
(0.00411243 -0.0109459 0.011298)
(0.00215906 -0.011711 0.0112253)
(0.00034248 -0.0121664 0.0111574)
(-0.00129561 -0.0123303 0.011073)
(-0.0028893 -0.0123447 0.0110724)
(-0.00445467 -0.0119943 0.0111578)
(-0.00601391 -0.0112859 0.0111861)
(-0.0076015 -0.0102162 0.0111661)
(-0.00916971 -0.00880967 0.0110876)
(-0.010631 -0.00713617 0.0109509)
(-0.0118877 -0.0052854 0.0107787)
(-0.0128705 -0.00335948 0.0105885)
(-0.013528 -0.00144574 0.0104058)
(-0.0138473 0.000418165 0.0102557)
(-0.0138084 0.00224946 0.0101602)
(-0.0133616 0.00407815 0.0101247)
(-0.0124682 0.00591016 0.0101316)
(-0.0111309 0.00771436 0.0101499)
(-0.00940185 0.0094199 0.0101526)
(-0.00737639 0.0109248 0.0101359)
(-0.00517988 0.0121361 0.0101084)
(-0.00294989 0.0129819 0.0100745)
(-0.000806603 0.0134237 0.0100585)
(0.00118328 0.0134736 0.0100813)
(0.00301458 0.0131459 0.0101628)
(0.0122901 0.023034 0.0101787)
(0.0154437 0.0206239 0.0103447)
(0.0183385 0.0175657 0.0104979)
(0.0208772 0.0139825 0.0106007)
(0.022956 0.0100567 0.0106267)
(0.0244942 0.00598656 0.0105816)
(0.0254361 0.00194121 0.0105083)
(0.0257557 -0.00195322 0.0104466)
(0.0254475 -0.00563816 0.0104309)
(0.024492 -0.00911438 0.0104833)
(0.0228616 -0.012407 0.0105986)
(0.0205329 -0.0155198 0.0107425)
(0.0175469 -0.0184006 0.0108656)
(0.0140249 -0.0209461 0.0109313)
(0.0101482 -0.0230395 0.0109148)
(0.00612108 -0.0245929 0.0108216)
(0.00212101 -0.0255459 0.0106954)
(-0.00171936 -0.025882 0.0105766)
(-0.00534121 -0.0256115 0.010498)
(-0.00874622 -0.024738 0.0104836)
(-0.011979 -0.0231872 0.0105189)
(-0.0150802 -0.0209549 0.0105864)
(-0.0179882 -0.0180834 0.0106373)
(-0.0206073 -0.0146674 0.0106369)
(-0.0228204 -0.0108736 0.0105656)
(-0.024527 -0.0068907 0.010422)
(-0.0256552 -0.00287809 0.0102519)
(-0.0261601 0.00103742 0.0101001)
(-0.0260118 0.00478911 0.0100032)
(-0.0251831 0.00836981 0.00998976)
(-0.0236357 0.011793 0.010056)
(-0.0213499 0.0150503 0.0101638)
(-0.0183637 0.0180812 0.0102625)
(-0.014793 0.020775 0.0103163)
(-0.0108244 0.0230053 0.0102985)
(-0.00666618 0.0246697 0.0102154)
(-0.0025017 0.0256979 0.0101109)
(0.00152721 0.0260594 0.0100264)
(0.00534109 0.0257411 0.00999873)
(0.00892305 0.0247378 0.0100518)
(0.0182685 0.0303443 0.0084508)
(0.0224519 0.026943 0.0086158)
(0.0262596 0.0226666 0.00877042)
(0.0295437 0.0176839 0.00884749)
(0.0321517 0.0122494 0.00882657)
(0.0339803 0.00663279 0.00873597)
(0.0349816 0.00107041 0.00862168)
(0.0351383 -0.00426045 0.00852299)
(0.03443 -0.0092793 0.00847702)
(0.0328576 -0.013993 0.00850072)
(0.0303911 -0.0184306 0.00860158)
(0.0270004 -0.0225868 0.00875502)
(0.022733 -0.0263798 0.00889604)
(0.0177571 -0.0296584 0.00895786)
(0.0123279 -0.032267 0.00892013)
(0.00671746 -0.0341016 0.00881109)
(0.00116546 -0.0351147 0.00867692)
(-0.0041484 -0.0352918 0.00855727)
(-0.00914434 -0.0346155 0.00848939)
(-0.0138341 -0.0330907 0.00849016)
(-0.0182607 -0.0306923 0.00856643)
(-0.0224167 -0.0273732 0.00869665)
(-0.0262224 -0.02318 0.00881458)
(-0.0295305 -0.0182729 0.00885367)
(-0.032181 -0.0128971 0.00879507)
(-0.0340699 -0.00731981 0.00866488)
(-0.0351411 -0.00177366 0.00850987)
(-0.0353704 0.00356416 0.00837326)
(-0.0347293 0.00860986 0.00829753)
(-0.0332144 0.0133674 0.00830075)
(-0.0307909 0.0178612 0.00838701)
(-0.0274267 0.022081 0.00853157)
(-0.0231693 0.0259428 0.0086673)
(-0.0181839 0.0292902 0.00872721)
(-0.0127255 0.0319605 0.00869167)
(-0.0070671 0.0338452 0.00858787)
(-0.00144988 0.0348916 0.00846256)
(0.00394281 0.0350799 0.00835702)
(0.0090225 0.0343873 0.00831087)
(0.0137893 0.0328172 0.00834083)
(0.0225077 0.0356035 0.00663885)
(0.0274225 0.0314809 0.00681055)
(0.0318919 0.0263187 0.00695577)
(0.0357069 0.0203086 0.00701624)
(0.0386776 0.0137561 0.00697856)
(0.0407012 0.00699431 0.00687173)
(0.0417492 0.00032583 0.00674219)
(0.0418095 -0.00601428 0.00663128)
(0.0408028 -0.0119425 0.00657146)
(0.0387845 -0.0175044 0.00658354)
(0.0357222 -0.022743 0.00669114)
(0.031576 -0.0276566 0.00685845)
(0.0263878 -0.0321236 0.00699827)
(0.0203509 -0.0359334 0.00705249)
(0.0137739 -0.0388954 0.00700758)
(0.00699358 -0.0409076 0.00689214)
(0.000317161 -0.0419439 0.00675291)
(-0.00601723 -0.0419948 0.00663131)
(-0.0119264 -0.0409838 0.00655974)
(-0.0174599 -0.0389708 0.0065592)
(-0.0226664 -0.035926 0.00665448)
(-0.0275478 -0.0318063 0.00680983)
(-0.0319871 -0.026653 0.00693927)
(-0.0357776 -0.0206561 0.00698539)
(-0.0387304 -0.0141193 0.00693333)
(-0.0407448 -0.00737466 0.00681109)
(-0.0417922 -0.0007242 0.00666712)
(-0.0418606 0.00559753 0.00654362)
(-0.0408696 0.0115075 0.00647552)
(-0.0388732 0.0170532 0.0064834)
(-0.0358381 0.0222797 0.00658984)
(-0.0317231 0.0271871 0.00675807)
(-0.0265679 0.0316558 0.00690126)
(-0.0205625 0.0354756 0.00696043)
(-0.014012 0.0384554 0.00692108)
(-0.00724926 0.0404916 0.00681213)
(-0.0005773 0.0415543 0.0066813)
(0.00576806 0.0416313 0.00657003)
(0.0117015 0.0406433 0.00651205)
(0.017267 0.0386446 0.00652766)
(0.00593175 0.0068599 0.0141665)
(0.00693792 0.00589115 0.014123)
(0.0079383 0.00466859 0.0140308)
(0.00886029 0.00319647 0.013887)
(0.00958829 0.00155875 0.0137532)
(0.00999773 -0.000167845 0.0135433)
(0.0100355 -0.00189206 0.0133824)
(0.00976098 -0.00349406 0.013172)
(0.00929418 -0.00489878 0.0130439)
(0.00869442 -0.00613591 0.0130248)
(0.00789639 -0.00729494 0.0131111)
(0.00684303 -0.00839899 0.0132571)
(0.00550285 -0.00942694 0.0134068)
(0.00389585 -0.0102942 0.0134617)
(0.00211053 -0.0108702 0.0135085)
(0.000239438 -0.0110258 0.0135033)
(-0.00161822 -0.010729 0.0134449)
(-0.00330376 -0.010125 0.0135227)
(-0.00468896 -0.0093553 0.0136705)
(-0.0057895 -0.00846031 0.0138667)
(-0.00674155 -0.0074268 0.0140879)
(-0.00759687 -0.00620396 0.0143173)
(-0.00834913 -0.00479238 0.0144839)
(-0.00897336 -0.00321639 0.0145648)
(-0.0093958 -0.00156204 0.0145586)
(-0.00952752 9.62059e-05 0.0144825)
(-0.00934636 0.00168459 0.0143757)
(-0.00891437 0.00309851 0.0142608)
(-0.00831381 0.00427304 0.0141938)
(-0.00760354 0.00525329 0.0142221)
(-0.00676365 0.00614297 0.0143365)
(-0.00573509 0.0069865 0.0145025)
(-0.00448907 0.00777617 0.0146642)
(-0.00304857 0.00845545 0.0147713)
(-0.00150689 0.00893867 0.0148028)
(3.21405e-05 0.00913932 0.0147664)
(0.00150316 0.00903134 0.0146839)
(0.00282837 0.00867844 0.0145563)
(0.00395058 0.00819004 0.0143929)
(0.00494691 0.00760518 0.0142617)
(0.00918033 0.0170017 0.0230894)
(0.0115148 0.0152762 0.0233831)
(0.0137292 0.0130157 0.0236326)
(0.0157272 0.0103074 0.0237636)
(0.0173719 0.00728954 0.0237565)
(0.0185499 0.00413756 0.0236255)
(0.0192321 0.00103996 0.0234243)
(0.01946 -0.00187523 0.0232339)
(0.019252 -0.00458078 0.0231287)
(0.0185802 -0.00712065 0.0231694)
(0.0173806 -0.00954938 0.0233514)
(0.0156097 -0.011895 0.0236068)
(0.0132813 -0.0141205 0.0238287)
(0.0104814 -0.0161157 0.023935)
(0.00735965 -0.0177331 0.0239085)
(0.00411503 -0.0188536 0.023763)
(0.00096341 -0.0194661 0.0235613)
(-0.00195338 -0.0196134 0.0233797)
(-0.00460739 -0.0193301 0.0232838)
(-0.00707443 -0.0186 0.0233053)
(-0.00939971 -0.0173857 0.0234861)
(-0.0116004 -0.0156661 0.0237122)
(-0.0136906 -0.0134515 0.0238808)
(-0.0155931 -0.0108166 0.0239184)
(-0.0171804 -0.00789034 0.0238074)
(-0.0183413 -0.004837 0.0235706)
(-0.0190423 -0.00182969 0.0232662)
(-0.0193079 0.00101489 0.0229796)
(-0.0191557 0.00366968 0.0227937)
(-0.0185494 0.00617403 0.0227638)
(-0.0174244 0.00858125 0.0228907)
(-0.0157368 0.0109174 0.0231035)
(-0.0135005 0.0131498 0.0232944)
(-0.0107992 0.0151764 0.0233837)
(-0.00777509 0.0168586 0.0233497)
(-0.00460623 0.0180774 0.023212)
(-0.00148039 0.0187886 0.0230203)
(0.00146583 0.0190278 0.0228524)
(0.00419751 0.0188307 0.022784)
(0.00675174 0.0181737 0.0228655)
(0.0152287 0.0248882 0.0227815)
(0.0186072 0.0220163 0.0231925)
(0.0217308 0.018388 0.0235289)
(0.0244528 0.0141658 0.0236755)
(0.0266139 0.00957746 0.0236169)
(0.0281124 0.00486307 0.0234009)
(0.0289136 0.0002379 0.0231045)
(0.0290226 -0.00414488 0.022828)
(0.028443 -0.00822402 0.0226784)
(0.0271529 -0.0120193 0.0227388)
(0.0250905 -0.0155871 0.0230223)
(0.0222127 -0.0189609 0.0234104)
(0.0185708 -0.0220799 0.0237235)
(0.0143295 -0.024791 0.0238468)
(0.00972308 -0.0269297 0.0237655)
(0.00500105 -0.0283945 0.0235262)
(0.000386379 -0.029157 0.0232056)
(-0.00396491 -0.0292329 0.0229019)
(-0.00799414 -0.0286366 0.02272)
(-0.0117284 -0.0273527 0.0227411)
(-0.0152268 -0.0253103 0.0229707)
(-0.0185391 -0.0224811 0.0233068)
(-0.0216187 -0.0189145 0.0235683)
(-0.024323 -0.0147625 0.0236408)
(-0.0264925 -0.0102452 0.0235138)
(-0.0280235 -0.00559489 0.0232311)
(-0.0288764 -0.0010181 0.0228728)
(-0.0290487 0.00333607 0.0225401)
(-0.0285354 0.00740558 0.0223414)
(-0.0273098 0.0112079 0.0223611)
(-0.0253066 0.0147964 0.0226157)
(-0.0224811 0.0182027 0.0229859)
(-0.0188824 0.0213658 0.0232896)
(-0.0146707 0.0241322 0.023412)
(-0.0100758 0.0263354 0.0233388)
(-0.00534107 0.0278695 0.0231151)
(-0.00068589 0.0286956 0.0228169)
(0.00372954 0.0288178 0.0225437)
(0.00783674 0.0282418 0.0224033)
(0.0116509 0.0269507 0.0224786)
(0.0203949 0.0307192 0.0197712)
(0.0245636 0.0269687 0.0202792)
(0.0283831 0.0222671 0.0206767)
(0.0316374 0.0168288 0.0208273)
(0.0341312 0.0109556 0.0207324)
(0.0357661 0.00495442 0.0204525)
(0.0365226 -0.000903584 0.0200717)
(0.0364142 -0.00641903 0.0197051)
(0.035444 -0.0115109 0.0194858)
(0.0336132 -0.0162136 0.019531)
(0.030853 -0.0206191 0.0198815)
(0.0270895 -0.0247778 0.020375)
(0.0223728 -0.028589 0.0207582)
(0.0169187 -0.0318343 0.0208948)
(0.0110325 -0.0343178 0.0207861)
(0.00502477 -0.0359421 0.0204925)
(-0.000829917 -0.0366912 0.0200978)
(-0.00633085 -0.0365817 0.0197163)
(-0.0113985 -0.0356199 0.0194803)
(-0.0160715 -0.0338094 0.0195066)
(-0.0204475 -0.0310813 0.0198355)
(-0.0245818 -0.0273614 0.020308)
(-0.0283787 -0.022697 0.0206701)
(-0.0316242 -0.0172981 0.0207856)
(-0.0341229 -0.0114621 0.0206567)
(-0.0357761 -0.00549207 0.0203435)
(-0.036562 0.00034477 0.0199318)
(-0.0364895 0.00585068 0.0195378)
(-0.0355576 0.0109439 0.0192954)
(-0.0337644 0.0156568 0.0193241)
(-0.0310388 0.0200798 0.0196648)
(-0.0273055 0.0242622 0.0201545)
(-0.0226129 0.0281026 0.0205389)
(-0.0171745 0.0313816 0.0206814)
(-0.0112929 0.033901 0.0205828)
(-0.00527623 0.0355601 0.0203022)
(0.000602656 0.0363374 0.0199237)
(0.00614134 0.0362454 0.0195622)
(0.0112552 0.035288 0.0193509)
(0.0159759 0.0334682 0.0194073)
(0.0243261 0.0350657 0.0161901)
(0.0291086 0.0306659 0.016741)
(0.0334711 0.0251621 0.0171581)
(0.0371323 0.0187932 0.0173026)
(0.0398717 0.0119167 0.0171881)
(0.0416001 0.00490217 0.0168795)
(0.0423164 -0.0019138 0.0164624)
(0.0420395 -0.00827587 0.0160597)
(0.0407363 -0.0141036 0.0158117)
(0.0384727 -0.0194805 0.0158508)
(0.0351814 -0.024533 0.0162364)
(0.0307577 -0.029318 0.0167793)
(0.0252269 -0.0336802 0.0171885)
(0.0188303 -0.0373371 0.0173249)
(0.0119288 -0.0400679 0.0172019)
(0.00489588 -0.041785 0.0168842)
(-0.00192806 -0.0424896 0.0164572)
(-0.00828529 -0.0422033 0.0160436)
(-0.0140961 -0.0408948 0.0157835)
(-0.0194475 -0.0386331 0.0158096)
(-0.0244702 -0.0353526 0.0161817)
(-0.0292254 -0.030948 0.0167119)
(-0.0335614 -0.025444 0.0171093)
(-0.0371993 -0.0190793 0.0172354)
(-0.0399198 -0.0122106 0.0171039)
(-0.0416357 -0.0052068 0.0167801)
(-0.0423467 0.00159651 0.0163501)
(-0.0420718 0.00794444 0.0159371)
(-0.0407768 0.013757 0.0156819)
(-0.0385272 0.0191187 0.0157176)
(-0.0352555 0.0241577 0.0161036)
(-0.0308561 0.0289329 0.0166506)
(-0.025353 0.0332909 0.0170669)
(-0.0189854 0.0369501 0.0172132)
(-0.0121105 0.0396901 0.0171023)
(-0.00509757 0.0414216 0.0167987)
(0.00171705 0.0421435 0.0163874)
(0.00807786 0.0418752 0.0159911)
(0.0139037 0.0405843 0.01575)
(0.0192773 0.0383368 0.0157967)
(0.00770775 0.00828517 0.0315436)
(0.00875288 0.00694132 0.0317044)
(0.00979563 0.00520997 0.0318236)
(0.0107198 0.00314341 0.0317953)
(0.0113708 0.000899831 0.0315876)
(0.0116363 -0.00128908 0.0312223)
(0.011503 -0.00327412 0.030809)
(0.0110733 -0.00500049 0.0304292)
(0.010455 -0.00640845 0.030186)
(0.0096494 -0.00756016 0.0301547)
(0.00857975 -0.00859839 0.0303432)
(0.00717029 -0.00960681 0.0306615)
(0.0053908 -0.0105764 0.0309663)
(0.00330308 -0.0113988 0.0311336)
(0.00106323 -0.0119297 0.0311223)
(-0.00110291 -0.0120668 0.0309522)
(-0.00305133 -0.0118061 0.0307321)
(-0.00472566 -0.0112623 0.0305633)
(-0.00605451 -0.0105497 0.0305348)
(-0.00710056 -0.0096814 0.0307078)
(-0.00802349 -0.00859273 0.0310713)
(-0.00892745 -0.00720615 0.0315386)
(-0.00982059 -0.0054876 0.0319564)
(-0.0106085 -0.00348893 0.0322009)
(-0.0111532 -0.00135574 0.0322272)
(-0.0113495 0.000705959 0.0320591)
(-0.0111813 0.00256407 0.0318023)
(-0.0107489 0.00417567 0.0315494)
(-0.0101502 0.00548425 0.0314023)
(-0.0093871 0.00655156 0.0314469)
(-0.00838363 0.00752876 0.0316939)
(-0.0070586 0.00850383 0.032059)
(-0.00537768 0.00947103 0.0323993)
(-0.00339752 0.0103232 0.0325931)
(-0.00127086 0.0109162 0.03259)
(0.00079108 0.0111453 0.0324052)
(0.00265037 0.0109973 0.0321194)
(0.00426329 0.0105827 0.0318128)
(0.00558116 0.0100117 0.0315706)
(0.00667732 0.00927865 0.0314741)
(0.0118443 0.0187357 0.0388965)
(0.0142559 0.0164412 0.0394675)
(0.0165923 0.0134817 0.0399173)
(0.0186913 0.0100158 0.0400818)
(0.0203587 0.00627376 0.0399393)
(0.021471 0.00250474 0.0395594)
(0.0220006 -0.00106546 0.039062)
(0.0220082 -0.0042898 0.038604)
(0.0215419 -0.00715439 0.0383496)
(0.0205549 -0.00974563 0.0384201)
(0.0189336 -0.0121873 0.0388275)
(0.0166035 -0.0145779 0.0393888)
(0.0136061 -0.0168905 0.0398401)
(0.0101033 -0.0189608 0.040017)
(0.00633103 -0.0205947 0.0398972)
(0.0025447 -0.0216685 0.0395482)
(-0.00102227 -0.0221575 0.0390878)
(-0.00421747 -0.0221272 0.038667)
(-0.0070274 -0.0216341 0.0384447)
(-0.009546 -0.020644 0.0385378)
(-0.0119065 -0.0190536 0.0389716)
(-0.0142194 -0.0167916 0.0395459)
(-0.016475 -0.0138936 0.0399919)
(-0.0185215 -0.0105086 0.0401465)
(-0.02017 -0.00685502 0.0399884)
(-0.0212951 -0.00316918 0.0395871)
(-0.0218616 0.000332099 0.0390639)
(-0.0219218 0.00350542 0.0385794)
(-0.0215209 0.00633728 0.0383023)
(-0.0206086 0.00891458 0.0383557)
(-0.0190668 0.0113622 0.0387533)
(-0.0168157 0.0137785 0.0393109)
(-0.0138911 0.0161355 0.0397627)
(-0.0104481 0.0182666 0.0399432)
(-0.00671494 0.0199733 0.0398274)
(-0.00294034 0.0211255 0.03948)
(0.000645699 0.021689 0.039017)
(0.00388918 0.0217229 0.0385935)
(0.00677251 0.0212825 0.0383711)
(0.00938276 0.0203245 0.038469)
(0.0178775 0.0262615 0.0372994)
(0.0212936 0.0228514 0.0381638)
(0.0245373 0.0185205 0.0388137)
(0.0273448 0.0135321 0.0390407)
(0.0294758 0.00821818 0.0388533)
(0.0308252 0.00289392 0.0383496)
(0.0313961 -0.0021734 0.0376788)
(0.0312441 -0.00680351 0.0370415)
(0.0304089 -0.0109481 0.0366674)
(0.0288572 -0.014687 0.0367588)
(0.0264311 -0.0181898 0.037387)
(0.0230068 -0.0215979 0.0382404)
(0.0186596 -0.0248309 0.0388819)
(0.0136553 -0.0276227 0.0391027)
(0.00833079 -0.0297324 0.0389106)
(0.00300562 -0.0310561 0.0384019)
(-0.00204906 -0.0316009 0.0377241)
(-0.00665129 -0.0314281 0.037076)
(-0.0107541 -0.0305836 0.0366869)
(-0.0144422 -0.0290394 0.0367587)
(-0.0178926 -0.0266398 0.037364)
(-0.0212568 -0.0232617 0.0381917)
(-0.0244638 -0.0189758 0.0388042)
(-0.0272532 -0.0140396 0.0389939)
(-0.0293856 -0.00877854 0.0387703)
(-0.0307539 -0.00350133 0.0382309)
(-0.0313574 0.0015294 0.0375259)
(-0.0312471 0.00613532 0.0368581)
(-0.0304592 0.0102683 0.0364593)
(-0.0289573 0.0140081 0.0365328)
(-0.0265804 0.0175243 0.0371504)
(-0.0232015 0.0209576 0.0379998)
(-0.0188924 0.0242268 0.0386428)
(-0.0139146 0.0270633 0.0388703)
(-0.00860045 0.029223 0.0386891)
(-0.00326687 0.0305968 0.0381947)
(0.00181508 0.0311854 0.0375356)
(0.00646045 0.0310451 0.0369117)
(0.0106179 0.0302189 0.0365522)
(0.0143667 0.0286764 0.0366581)
(0.0228391 0.0314597 0.0324187)
(0.0270036 0.0272408 0.0335074)
(0.0309224 0.0218804 0.0342888)
(0.0342119 0.0157172 0.0345413)
(0.0365932 0.00917208 0.0343139)
(0.037979 0.00262643 0.0337209)
(0.0384021 -0.00359353 0.0329191)
(0.0379455 -0.00925533 0.0321294)
(0.0366786 -0.0142896 0.0316256)
(0.0346187 -0.0188013 0.031684)
(0.0315801 -0.0230421 0.0324678)
(0.0273469 -0.0272023 0.0335455)
(0.0219706 -0.0311163 0.0343174)
(0.0157919 -0.0343994 0.0345615)
(0.00923445 -0.0367724 0.0343265)
(0.00268286 -0.0381492 0.0337259)
(-0.00353404 -0.0385648 0.0329157)
(-0.00918251 -0.0381049 0.0321161)
(-0.0141942 -0.0368416 0.0316007)
(-0.0186776 -0.0347948 0.031646)
(-0.0228894 -0.0317794 0.0324162)
(-0.0270254 -0.0275788 0.0334801)
(-0.030924 -0.0222416 0.0342373)
(-0.034203 -0.0161035 0.0344661)
(-0.0365837 -0.00958251 0.0342162)
(-0.0379783 -0.00305734 0.0336017)
(-0.038418 0.00314766 0.0327803)
(-0.0379836 0.00880059 0.0319743)
(-0.0367426 0.013832 0.0314589)
(-0.0347104 0.0183467 0.0315113)
(-0.0316992 0.022596 0.0322947)
(-0.0274915 0.0267703 0.0333767)
(-0.022137 0.0307029 0.034157)
(-0.0159743 0.0340081 0.0344132)
(-0.00942467 0.0364049 0.0341931)
(-0.00287074 0.0378047 0.0336097)
(0.00335955 0.0382395 0.0328188)
(0.00903168 0.0377927 0.0320413)
(0.0140748 0.0365354 0.0315507)
(0.0185933 0.0344861 0.0316223)
(0.0266403 0.0350395 0.0266393)
(0.0313855 0.0302549 0.0277916)
(0.0358015 0.0241733 0.0285955)
(0.0394175 0.0171618 0.028846)
(0.0419449 0.00970073 0.0286138)
(0.0433174 0.00223176 0.0280094)
(0.0435867 -0.00485152 0.0271815)
(0.0428479 -0.0112582 0.0263517)
(0.0411643 -0.0169195 0.0257994)
(0.0386486 -0.0219956 0.0258284)
(0.0351347 -0.0268079 0.0266579)
(0.0303307 -0.0315578 0.0278017)
(0.0242269 -0.0359763 0.0285981)
(0.0171923 -0.0395914 0.0288414)
(0.00971006 -0.0421143 0.028602)
(0.00222546 -0.0434796 0.0279898)
(-0.00486463 -0.0437412 0.0271534)
(-0.0112672 -0.042996 0.0263139)
(-0.0169139 -0.041309 0.025751)
(-0.0219678 -0.0387951 0.025769)
(-0.0267547 -0.0352898 0.0265886)
(-0.0314796 -0.0305004 0.0277235)
(-0.0358763 -0.0244161 0.0285118)
(-0.0394749 -0.0174039 0.0287482)
(-0.0419876 -0.0099441 0.0285036)
(-0.0433491 -0.00247855 0.0278885)
(-0.0436122 0.00459892 0.027052)
(-0.0428723 0.0109972 0.0262164)
(-0.0411932 0.0166479 0.0256619)
(-0.0386868 0.0217124 0.0256929)
(-0.0351871 0.0265141 0.0265286)
(-0.0304011 0.0312556 0.0276821)
(-0.0243182 0.0356691 0.0284912)
(-0.0173059 0.0392832 0.0287499)
(-0.00984488 0.0418094 0.028528)
(-0.00237711 0.0431815 0.0279349)
(0.00470378 0.0434522 0.0271188)
(0.0111069 0.0427172 0.0263006)
(0.0167635 0.0410416 0.02576)
(0.0218338 0.0385376 0.0258)
(0.00905922 0.00945083 0.0505694)
(0.00997502 0.00779912 0.0512751)
(0.0110657 0.00553284 0.0518521)
(0.012094 0.00278025 0.0520535)
(0.0127763 -0.000152836 0.0518278)
(0.0129695 -0.00288501 0.0512558)
(0.0127215 -0.00517994 0.0505108)
(0.0122004 -0.00694695 0.0497951)
(0.0115446 -0.00814768 0.0493497)
(0.0107299 -0.00896392 0.0493691)
(0.00956542 -0.00969448 0.0498917)
(0.00786902 -0.0105638 0.0506868)
(0.00558154 -0.0115885 0.0513756)
(0.00283596 -0.0125389 0.0517031)
(-6.64801e-05 -0.0131406 0.0516091)
(-0.00274906 -0.0132569 0.0511695)
(-0.00498268 -0.0129405 0.0505535)
(-0.00667937 -0.0123673 0.0499629)
(-0.00780116 -0.0116826 0.0496349)
(-0.00853783 -0.010865 0.0497577)
(-0.00919757 -0.00972566 0.0503646)
(-0.0100145 -0.00808004 0.0512244)
(-0.0110127 -0.00585988 0.0519545)
(-0.0119682 -0.00318821 0.0523003)
(-0.0126048 -0.000358614 0.0522021)
(-0.0127796 0.00226616 0.0517361)
(-0.0125361 0.00445935 0.051075)
(-0.0120444 0.00614251 0.0504219)
(-0.0114417 0.00728569 0.0500227)
(-0.0106951 0.00806907 0.0500747)
(-0.00960643 0.00879564 0.05062)
(-0.00798759 0.00968765 0.0514322)
(-0.00577137 0.0107574 0.0521302)
(-0.00308513 0.0117714 0.0524588)
(-0.000230373 0.0124482 0.0523541)
(0.00242281 0.012644 0.0518869)
(0.00464053 0.0124068 0.0512222)
(0.0063436 0.0119157 0.0505534)
(0.00750575 0.0113113 0.0501187)
(0.00830945 0.0105573 0.0501097)
(0.014096 0.0202922 0.0549948)
(0.016438 0.0173647 0.0562718)
(0.0189331 0.0135293 0.0571886)
(0.021217 0.0090959 0.0574619)
(0.0229468 0.00445466 0.0571151)
(0.0239766 -2.14532e-05 0.0563019)
(0.0243297 -0.00401874 0.0552559)
(0.0241485 -0.00734952 0.0542857)
(0.0235324 -0.0100353 0.0537395)
(0.022394 -0.0122779 0.0539104)
(0.0204414 -0.0144066 0.0548843)
(0.0174902 -0.0167301 0.0561603)
(0.0136335 -0.0192037 0.0570866)
(0.00918375 -0.0214636 0.0573786)
(0.00453372 -0.0231677 0.0570576)
(5.93776e-05 -0.0241709 0.0562749)
(-0.003922 -0.0244981 0.0552618)
(-0.00722008 -0.0242973 0.0543234)
(-0.00985807 -0.0236736 0.0538054)
(-0.0120433 -0.0225461 0.0539985)
(-0.014114 -0.020626 0.0549886)
(-0.0163889 -0.0177286 0.0562706)
(-0.0188317 -0.0139421 0.0571904)
(-0.0210843 -0.00956953 0.0574645)
(-0.0228064 -0.00499198 0.057116)
(-0.0238503 -0.000573962 0.0562986)
(-0.0242349 0.00337541 0.0552465)
(-0.0240981 0.00667094 0.0542703)
(-0.0235363 0.00933586 0.0537194)
(-0.0224585 0.0115735 0.0538877)
(-0.020568 0.0137144 0.0548616)
(-0.017675 0.0160667 0.0561394)
(-0.0138677 0.0185826 0.0570692)
(-0.00945302 0.0208943 0.0573667)
(-0.00481945 0.0226545 0.0570522)
(-0.000341111 0.0237129 0.056276)
(0.00366358 0.0240908 0.0552677)
(0.0070032 0.023931 0.0543331)
(0.00969835 0.0233361 0.0538167)
(0.0119524 0.0222208 0.0540091)
(0.0204202 0.0277417 0.0512068)
(0.0238042 0.0236363 0.053045)
(0.0272775 0.0182982 0.0542586)
(0.0302574 0.0122256 0.0545776)
(0.0323511 0.00593086 0.0541242)
(0.0334756 -0.000158965 0.0530901)
(0.0337264 -0.00568556 0.0517352)
(0.0332746 -0.0104126 0.0504246)
(0.0322495 -0.0143099 0.0496157)
(0.0306004 -0.0175741 0.0497812)
(0.027884 -0.0206749 0.0512155)
(0.0237671 -0.0240545 0.0530481)
(0.0184168 -0.0275216 0.0542597)
(0.0123336 -0.0304921 0.0545792)
(0.00603289 -0.0325731 0.0541276)
(-5.55049e-05 -0.0336823 0.0530953)
(-0.00557057 -0.0339179 0.0517405)
(-0.0102747 -0.0334549 0.0504277)
(-0.014139 -0.0324272 0.0496134)
(-0.0173638 -0.0307878 0.0497704)
(-0.0204256 -0.0280945 0.0511943)
(-0.023774 -0.0240128 0.0530126)
(-0.0272227 -0.0187062 0.0542063)
(-0.030191 -0.012669 0.0545057)
(-0.0322865 -0.00640902 0.0540335)
(-0.0334242 -0.000349182 0.0529816)
(-0.0336972 0.00515438 0.0516108)
(-0.0332743 0.00986633 0.0502876)
(-0.032283 0.0137571 0.04947)
(-0.0306701 0.0170237 0.0496309)
(-0.0279895 0.0201364 0.051065)
(-0.0239053 0.0235368 0.0529006)
(-0.0185817 0.0270313 0.054119)
(-0.0125159 0.0300338 0.0544496)
(-0.00622052 0.0321485 0.0540126)
(-0.00012462 0.0332896 0.0529978)
(0.00541016 0.0335519 0.0516632)
(0.0101446 0.0331079 0.0503727)
(0.0140474 0.0320897 0.049582)
(0.0173157 0.0304485 0.0497623)
(0.0254158 0.0323898 0.0441622)
(0.029603 0.0275544 0.0464021)
(0.0337971 0.0211932 0.0477857)
(0.0372025 0.0139502 0.0481235)
(0.0394163 0.00644147 0.0476296)
(0.0404092 -0.000852016 0.046497)
(0.0403247 -0.00750748 0.0449696)
(0.0393901 -0.0132184 0.0434192)
(0.037821 -0.0179156 0.0423593)
(0.0356921 -0.0218149 0.042408)
(0.0324932 -0.0255809 0.0441606)
(0.0276479 -0.0297697 0.0463921)
(0.0212747 -0.033965 0.0477697)
(0.0140195 -0.0373703 0.0481029)
(0.00650078 -0.0395819 0.0476053)
(-0.000797862 -0.0405711 0.046469)
(-0.00745126 -0.040483 0.0449372)
(-0.0131515 -0.0395471 0.0433812)
(-0.01783 -0.0379814 0.0423145)
(-0.0217054 -0.0358628 0.042356)
(-0.0254471 -0.0326811 0.0441026)
(-0.0296158 -0.0278581 0.0463274)
(-0.0337976 -0.0215107 0.0476968)
(-0.0371972 -0.0142811 0.0480216)
(-0.0394112 -0.00678421 0.0475159)
(-0.0404097 0.000500282 0.0463729)
(-0.0403354 0.00714981 0.0448374)
(-0.0394146 0.0128577 0.043282)
(-0.0378622 0.0175548 0.0422209)
(-0.0357517 0.0214571 0.0422728)
(-0.032571 0.0252297 0.0440328)
(-0.0277422 0.0294283 0.0462744)
(-0.0213833 0.0336352 0.0476651)
(-0.0141386 0.0370531 0.0480147)
(-0.00662511 0.0392775 0.0475358)
(0.000674676 0.0402783 0.0464201)
(0.00733617 0.0401992 0.0449103)
(0.0130514 0.0392687 0.0433776)
(0.0177509 0.0377041 0.0423344)
(0.0216506 0.035581 0.042398)
(0.0292661 0.0350791 0.0362597)
(0.0340767 0.0298336 0.0385238)
(0.0387368 0.0228719 0.0398881)
(0.0423567 0.0148834 0.0402329)
(0.044574 0.00655116 0.039792)
(0.0453931 -0.001588 0.038725)
(0.0449706 -0.00903897 0.0372398)
(0.0435517 -0.0154281 0.0356805)
(0.0413892 -0.0206785 0.0345468)
(0.038727 -0.0250612 0.0344856)
(0.0351539 -0.0293903 0.0362464)
(0.029896 -0.0342088 0.0385021)
(0.0229186 -0.0388757 0.0398597)
(0.0149126 -0.0425001 0.0401985)
(0.00656374 -0.0447188 0.0397519)
(-0.00158826 -0.0455368 0.0386788)
(-0.00904523 -0.0451119 0.0371871)
(-0.0154314 -0.0436909 0.0356204)
(-0.0206701 -0.0415276 0.0344789)
(-0.0250345 -0.0388683 0.0344107)
(-0.029343 -0.0353021 0.0361675)
(-0.034142 -0.0300536 0.0384204)
(-0.0387919 -0.0230874 0.0397755)
(-0.0424024 -0.0150933 0.0401128)
(-0.044611 -0.00675547 0.039666)
(-0.0454225 0.00138823 0.0385946)
(-0.0449944 0.00884139 0.0371073)
(-0.0435731 0.0152295 0.0355486)
(-0.0414117 0.0204758 0.0344189)
(-0.0387543 0.0248524 0.0343656)
(-0.035189 0.0291752 0.0361384)
(-0.0299409 0.0339879 0.0384086)
(-0.0229758 0.0386494 0.039783)
(-0.0149838 0.0422696 0.0401412)
(-0.00664914 0.0444857 0.0397158)
(0.00149056 0.0453027 0.0386651)
(0.00893974 0.0448783 0.0371965)
(0.0153248 0.0434592 0.0356534)
(0.0205693 0.0412993 0.0345351)
(0.0249448 0.0386431 0.0344877)
(0.00992736 0.0113563 0.0713959)
(0.0105844 0.00919487 0.0734254)
(0.0119498 0.00592334 0.0749288)
(0.0133601 0.00191054 0.0754147)
(0.0142415 -0.00222151 0.0748919)
(0.014437 -0.00580672 0.0736127)
(0.0140957 -0.00845865 0.0719467)
(0.0135587 -0.0100343 0.0703507)
(0.0130861 -0.0105577 0.0693648)
(0.0125657 -0.0104629 0.0694753)
(0.0114032 -0.0103808 0.0708884)
(0.00922009 -0.0109946 0.0729669)
(0.00595158 -0.0123063 0.0745446)
(0.00196268 -0.0136618 0.0751199)
(-0.00212667 -0.0144908 0.0746948)
(-0.00565406 -0.0146403 0.0735167)
(-0.00823856 -0.0142672 0.0719503)
(-0.00974308 -0.0137156 0.0704496)
(-0.0101963 -0.013248 0.0695491)
(-0.0100389 -0.0127542 0.0697306)
(-0.00990852 -0.0116401 0.0711995)
(-0.0104987 -0.00951621 0.0733355)
(-0.0118141 -0.00630817 0.074944)
(-0.0131953 -0.00237632 0.0755311)
(-0.0140708 0.00166727 0.0751028)
(-0.0142809 0.00516985 0.0739066)
(-0.0139748 0.00775286 0.0723102)
(-0.0134888 0.00928039 0.0707685)
(-0.0130791 0.00978054 0.0698222)
(-0.0126278 0.00968596 0.0699585)
(-0.0115375 0.00962782 0.0713871)
(-0.00941465 0.0102889 0.0734906)
(-0.00618766 0.011665 0.0750765)
(-0.00222503 0.0130907 0.075652)
(0.00185492 0.0139921 0.0752201)
(0.00539287 0.0142092 0.0740251)
(0.0080059 0.0138946 0.072429)
(0.00955487 0.013391 0.0708807)
(0.0100687 0.0129581 0.069916)
(0.0099819 0.0124791 0.0700185)
(0.0160573 0.0226611 0.0722101)
(0.0183028 0.0187184 0.0751725)
(0.0212747 0.0133772 0.077016)
(0.0240048 0.00734702 0.0773929)
(0.0258771 0.00130682 0.0765252)
(0.0267816 -0.00418716 0.0747536)
(0.026893 -0.00867179 0.0725255)
(0.0265479 -0.011872 0.070438)
(0.025973 -0.0138582 0.0692174)
(0.0249989 -0.0150418 0.0695971)
(0.0227689 -0.0162975 0.0720639)
(0.0188168 -0.018528 0.075029)
(0.0134702 -0.0214849 0.0768844)
(0.00743915 -0.0242007 0.0772805)
(0.00140406 -0.0260591 0.0764376)
(-0.00407717 -0.0269508 0.0746946)
(-0.00853976 -0.0270523 0.0724968)
(-0.0117083 -0.0267037 0.0704386)
(-0.0136549 -0.0261356 0.0692439)
(-0.0147951 -0.0251819 0.0696448)
(-0.0160112 -0.0229852 0.0721291)
(-0.0182148 -0.0190774 0.0751042)
(-0.0211596 -0.0137812 0.0769598)
(-0.0238801 -0.00780058 0.0773487)
(-0.0257607 -0.0018071 0.0764926)
(-0.0266883 0.00364841 0.074732)