/*--------------------------------*- C++ -*----------------------------------*\
| =========                 |                                                 |
| \\      /  F ield         | OpenFOAM: The Open Source CFD Toolbox           |
|  \\    /   O peration     | Version:  2112                                  |
|   \\  /    A nd           | Website:  www.openfoam.com                      |
|    \\/     M anipulation  |                                                 |
\*---------------------------------------------------------------------------*/
FoamFile
{
    version     2.0;
    format      ascii;
    arch        "LSB;label=32;scalar=64";
    class       surfaceVectorField;
    location    "1";
    object      Uf;
}
// * * * * * * * * * * * * * * * * * * * * * * * * * * * * * * * * * * * * * //

dimensions      [0 1 -1 0 0 0 0];

internalField   nonuniform List<vector> 
76920
(
(0.00136133 -0.00159333 -0.000397679)
(0.00176489 -0.000957711 0.000153103)
(0.00301164 0.00511888 0.00483365)
(0.00376901 0.00278252 0.00684826)
(0.000830906 -0.00211101 -0.000988118)
(0.00350077 0.00430632 0.00462691)
(0.00402633 0.00200029 0.00658331)
(0.000255476 -0.00248494 -0.00160969)
(0.00391343 0.00341387 0.00437272)
(0.00424374 0.00116746 0.00625278)
(-0.000332945 -0.0027131 -0.00214586)
(0.00425214 0.00246639 0.00411333)
(0.00440494 0.000288959 0.00590561)
(-0.000912022 -0.00273543 -0.00260633)
(0.0045222 0.00150114 0.00391249)
(0.00448031 -0.000611752 0.00562583)
(-0.00144198 -0.00255258 -0.00294931)
(0.0046807 0.000638288 0.0036924)
(0.00440094 -0.00142913 0.0052933)
(-0.00190853 -0.00215356 -0.00322367)
(0.00473213 -9.65425e-05 0.00358234)
(0.00417165 -0.002138 0.00510032)
(-0.00222917 -0.00159838 -0.00346966)
(0.00466377 -0.000670014 0.0034208)
(0.00381846 -0.00269245 0.00485216)
(-0.00233221 -0.000923957 -0.00365324)
(0.00457698 -0.00111435 0.00334449)
(0.00348155 -0.00309361 0.00471721)
(-0.00224264 -0.000249239 -0.00384456)
(0.00447614 -0.00147848 0.00326957)
(0.00317272 -0.00336991 0.00461807)
(-0.0020053 0.000365738 -0.0040436)
(0.00433088 -0.00183401 0.00321843)
(0.00286987 -0.0036136 0.00458251)
(-0.00170043 0.000856113 -0.00425153)
(0.00405754 -0.00224354 0.00315926)
(0.00248498 -0.00388014 0.00457039)
(-0.00137084 0.00119279 -0.00449907)
(0.00363123 -0.00271748 0.00309822)
(0.0019819 -0.00418207 0.00457958)
(-0.00100037 0.0014406 -0.00467988)
(0.0030606 -0.00323301 0.00296591)
(0.00135606 -0.00447916 0.0044953)
(-0.00061965 0.0016069 -0.00463836)
(0.00239373 -0.00373149 0.0029258)
(0.000642104 -0.00466467 0.0044833)
(-0.000148465 0.0017663 -0.00450848)
(0.00171443 -0.00416969 0.00297951)
(-7.84048e-05 -0.00467396 0.00452518)
(0.000336018 0.00196487 -0.00422391)
(0.00106979 -0.00445376 0.00300169)
(-0.000760649 -0.00443732 0.00452388)
(0.000811 0.00213983 -0.00368187)
(0.000492009 -0.00455919 0.00321111)
(-0.00135168 -0.00402513 0.00477812)
(0.00117318 0.00222099 -0.00306454)
(-5.21565e-05 -0.0045719 0.00349783)
(-0.00184076 -0.00357389 0.00514211)
(0.00143864 0.00229648 -0.0025356)
(-0.000634308 -0.00456655 0.00381822)
(-0.00224258 -0.00310684 0.0055144)
(0.00157848 0.00239049 -0.00206921)
(-0.00124373 -0.00436709 0.00409299)
(-0.00259766 -0.00253302 0.00581802)
(0.0015492 0.0024692 -0.00162722)
(-0.00195157 -0.00401453 0.0043615)
(-0.00299924 -0.00188715 0.00613959)
(0.00139715 0.00258836 -0.00126639)
(-0.00275482 -0.00347864 0.0045606)
(-0.00342669 -0.00113958 0.00639325)
(0.00119387 0.00274395 -0.000962122)
(-0.0035932 -0.00275049 0.00469317)
(-0.00383356 -0.000282016 0.00657536)
(0.00100093 0.00288231 -0.000679647)
(-0.00439029 -0.00188341 0.00477742)
(-0.0041514 0.000624754 0.00668982)
(0.000860934 0.00295396 -0.000395844)
(-0.00507183 -0.000952949 0.00484259)
(-0.00430644 0.00151494 0.00675747)
(0.000796052 0.00293496 -0.000107268)
(-0.0055773 -4.36337e-05 0.00490279)
(-0.00426798 0.00231756 0.00681855)
(0.000787437 0.00283498 0.000160096)
(-0.00588194 0.000813147 0.00496798)
(-0.0040667 0.00299377 0.00689487)
(0.000799338 0.00267501 0.000377529)
(-0.00601086 0.0016162 0.00502498)
(-0.00375984 0.00352763 0.00698207)
(0.000835059 0.00248902 0.000544819)
(-0.00597847 0.00236559 0.00507925)
(-0.00339294 0.00392919 0.00708827)
(0.000922671 0.00231228 0.00067161)
(-0.0057457 0.00310299 0.00513814)
(-0.00294671 0.00427442 0.00721465)
(0.00108393 0.0021641 0.000766721)
(-0.0052731 0.00385874 0.00519867)
(-0.00237386 0.00461062 0.00735345)
(0.00131812 0.00203341 0.000839084)
(-0.00455489 0.00462221 0.00524994)
(-0.00165329 0.00493576 0.00748073)
(0.00159696 0.00188579 0.000901875)
(-0.00362128 0.00535007 0.00528455)
(-0.000802599 0.00520988 0.00757367)
(0.00187019 0.00167432 0.000973837)
(-0.0025348 0.00597236 0.00530914)
(0.000112919 0.00536871 0.00762205)
(0.0020891 0.0013526 0.00106022)
(-0.00138341 0.00641561 0.00533901)
(0.00101157 0.00534212 0.00763602)
(0.00221909 0.000890766 0.00111196)
(-0.00025999 0.00661346 0.00537056)
(0.00183239 0.00509411 0.00763318)
(0.00223299 0.000312855 0.000992288)
(0.000779826 0.00654226 0.00536959)
(0.00253991 0.00465185 0.00758724)
(0.00208665 -0.00032197 0.000647644)
(0.00167935 0.00624311 0.00524824)
(0.00308151 0.00409543 0.00740834)
(0.00240785 0.00576192 0.00505765)
(0.00346448 0.00347648 0.00715271)
(0.00551342 0.0119034 0.0103862)
(0.00384628 0.0128051 0.0102316)
(0.00835565 0.0175257 0.0102418)
(0.00695108 0.0147211 0.0163153)
(0.00707588 0.0106406 0.0105527)
(0.010701 0.0158024 0.0104107)
(0.00891861 0.0133146 0.0165564)
(0.00853566 0.00905121 0.0106983)
(0.0128776 0.013592 0.0105683)
(0.0107815 0.0114697 0.0167728)
(0.00983289 0.00724269 0.0108057)
(0.0148193 0.0109786 0.0106849)
(0.0124737 0.00925564 0.0169196)
(0.010915 0.00531897 0.0108709)
(0.016443 0.00810912 0.0107417)
(0.0139011 0.00680152 0.0169732)
(0.0117299 0.00339134 0.0109021)
(0.0176822 0.00513904 0.0107434)
(0.0149697 0.00424798 0.0169392)
(0.0122486 0.00153115 0.0109191)
(0.0184872 0.00219923 0.0107171)
(0.0156501 0.00173993 0.0168502)
(0.0124718 -0.000160523 0.0109404)
(0.0188291 -0.000602494 0.0106962)
(0.0159449 -0.000613788 0.0167684)
(0.0124065 -0.00177589 0.0109839)
(0.0187308 -0.00323361 0.0107018)
(0.0158795 -0.00279291 0.0167261)
(0.0120413 -0.00331869 0.0110623)
(0.0181662 -0.00572107 0.010759)
(0.0154385 -0.00484674 0.0167777)
(0.0113123 -0.0048666 0.0111659)
(0.0171097 -0.00810666 0.0108639)
(0.0145711 -0.00682946 0.0169141)
(0.0101997 -0.00640426 0.0112688)
(0.0155208 -0.0104085 0.0109911)
(0.0132282 -0.00877004 0.0171007)
(0.00873731 -0.00788593 0.0113385)
(0.0134175 -0.0125892 0.0110993)
(0.0114187 -0.0106404 0.0172668)
(0.00698548 -0.00925507 0.0113566)
(0.0108818 -0.0145719 0.0111543)
(0.00920715 -0.0123587 0.0173502)
(0.00508193 -0.0104216 0.0113251)
(0.00804752 -0.0162461 0.0111417)
(0.00671863 -0.0138113 0.0173385)
(0.00312308 -0.0113301 0.0112617)
(0.00508335 -0.0175331 0.0110688)
(0.00411373 -0.0148997 0.0172365)
(0.00123779 -0.0119384 0.0111913)
(0.00214087 -0.0183702 0.0109703)
(0.00156123 -0.0155885 0.0170964)
(-0.000470479 -0.0122495 0.0111152)
(-0.000647082 -0.0187414 0.0108779)
(-0.000805447 -0.0158899 0.0169731)
(-0.00205938 -0.0123492 0.0110727)
(-0.0032324 -0.0186838 0.0107963)
(-0.0029515 -0.0158302 0.016881)
(-0.00366519 -0.0121732 0.0111151)
(-0.00569335 -0.0182761 0.0107891)
(-0.00498187 -0.0154723 0.0168816)
(-0.0052216 -0.0116498 0.0111719)
(-0.00803796 -0.0173225 0.0108504)
(-0.00692719 -0.01469 0.0169942)
(-0.00680523 -0.0107537 0.0111761)
(-0.0103271 -0.0158835 0.0108975)
(-0.00880717 -0.013476 0.0171087)
(-0.00839204 -0.00950363 0.0111268)
(-0.0125443 -0.013957 0.0109116)
(-0.0106461 -0.0118339 0.0171764)
(-0.00990807 -0.00795685 0.0110192)
(-0.0146156 -0.0115949 0.0108707)
(-0.0123814 -0.00981316 0.0171525)
(-0.0112638 -0.00619588 0.0108648)
(-0.0164443 -0.00891448 0.0107655)
(-0.0139057 -0.00751326 0.0170241)
(-0.0123806 -0.0043117 0.0106836)
(-0.0179228 -0.00604783 0.0106071)
(-0.0151145 -0.0050612 0.0168122)
(-0.0131992 -0.00239893 0.0104972)
(-0.0189821 -0.00312568 0.0104265)
(-0.0159564 -0.00259459 0.0165559)
(-0.0136892 -0.000522115 0.0103308)
(-0.0195749 -0.000254152 0.0102587)
(-0.016418 -0.000215425 0.0163132)
(-0.0138344 0.00131522 0.010208)
(-0.0196793 0.00251571 0.0101342)
(-0.0165015 0.00204392 0.0161368)
(-0.0135952 0.00314492 0.0101424)
(-0.0192709 0.00518965 0.0100782)
(-0.0161789 0.00421175 0.0160651)
(-0.0129233 0.00498324 0.0101282)
(-0.0183051 0.00779019 0.0100916)
(-0.015393 0.0063297 0.0161009)
(-0.0117997 0.00681216 0.0101408)
(-0.0167499 0.0103154 0.0101471)
(-0.0141025 0.00841378 0.0162059)
(-0.0102564 0.00857404 0.0101513)
(-0.0146231 0.0127172 0.0102041)
(-0.0123157 0.0104321 0.0163122)
(-0.00837294 0.0101801 0.0101442)
(-0.0120076 0.0149039 0.0102313)
(-0.0101005 0.0122981 0.0163636)
(-0.00626256 0.0115351 0.0101221)
(-0.00904476 0.0167617 0.0102141)
(-0.00757574 0.0138917 0.0163435)
(-0.00405283 0.0125606 0.0100915)
(-0.00589972 0.0181887 0.0101598)
(-0.00489306 0.0151067 0.0162645)
(-0.00187361 0.0132027 0.0100665)
(-0.00273503 0.0191151 0.010092)
(-0.00221514 0.0158853 0.0161545)
(0.000180492 0.0134501 0.0100699)
(0.000316911 0.019509 0.0100431)
(0.000329612 0.0162258 0.0160662)
(0.00208379 0.0133151 0.0101221)
(0.00318345 0.0193746 0.0100416)
(0.00269039 0.0161521 0.0160477)
(0.0058542 0.018716 0.0101094)
(0.00488316 0.0156598 0.016133)
(0.013856 0.0218373 0.0102617)
(0.010587 0.0238965 0.0101153)
(0.0151526 0.0265229 0.00934124)
(0.0137594 0.0239611 0.0160119)
(0.0168926 0.0190933 0.0104213)
(0.0187972 0.0236385 0.00950674)
(0.0170254 0.0213201 0.0162956)
(0.0196186 0.0157585 0.0105493)
(0.0221269 0.0199967 0.00966064)
(0.0200347 0.0179768 0.0165442)
(0.0219274 0.011997 0.0106137)
(0.0250229 0.0157447 0.00975095)
(0.022665 0.0140742 0.0166762)
(0.0237312 0.00800135 0.0106041)
(0.0273558 0.0110974 0.00975421)
(0.0247849 0.00981709 0.0166679)
(0.0249669 0.0039512 0.0105449)
(0.0290319 0.0062869 0.00968705)
(0.0263033 0.00542481 0.0165451)
(0.0255959 -9.08233e-06 0.0104774)
(0.0299982 0.00151566 0.0095939)
(0.0271749 0.00108956 0.0163667)
(0.0256041 -0.00378224 0.0104387)
(0.0302348 -0.00306442 0.00951425)
(0.0273892 -0.00304905 0.0162022)
(0.0249776 -0.007354 0.0104571)
(0.0297306 -0.00738418 0.00948387)
(0.0269452 -0.00693109 0.0161191)
(0.0236886 -0.0107389 0.0105409)
(0.0284763 -0.0114478 0.00952239)
(0.0258225 -0.0105668 0.0161691)
(0.0217057 -0.0139523 0.0106705)
(0.0264435 -0.0152828 0.00963066)
(0.0239761 -0.013997 0.0163565)
(0.0190372 -0.0169628 0.0108041)
(0.0236055 -0.0188893 0.00977922)
(0.0213728 -0.0172404 0.0166156)
(0.0157708 -0.0196838 0.0108985)
(0.0200061 -0.0222011 0.009911)
(0.0180588 -0.0202403 0.0168363)
(0.0120637 -0.0220037 0.0109231)
(0.0157903 -0.0250937 0.00997481)
(0.0141772 -0.0228685 0.0169368)
(0.00811416 -0.0238223 0.0108682)
(0.0111745 -0.0274336 0.00994805)
(0.00993562 -0.0249846 0.0168943)
(0.00410748 -0.0250712 0.0107585)
(0.0063932 -0.0291226 0.00984716)
(0.00556106 -0.0264937 0.0167343)
(0.000197115 -0.0257139 0.010636)
(0.00165371 -0.030107 0.0097171)
(0.00125369 -0.0273514 0.0165164)
(-0.00351946 -0.0257487 0.0105373)
(-0.00288922 -0.0303706 0.00959788)
(-0.00284213 -0.0275575 0.0163093)
(-0.0070312 -0.0251791 0.0104908)
(-0.00716695 -0.0299095 0.00952447)
(-0.00666767 -0.027124 0.0161785)
(-0.0103295 -0.0239806 0.0105013)
(-0.0111837 -0.0287221 0.00951743)
(-0.0102373 -0.0260454 0.0161746)
(-0.0135193 -0.022079 0.0105526)
(-0.0149983 -0.0267856 0.00957259)
(-0.0136029 -0.0242488 0.0162836)
(-0.0165365 -0.0195168 0.0106118)
(-0.0186073 -0.0240337 0.00967047)
(-0.0168096 -0.021718 0.0164747)
(-0.0193068 -0.0163623 0.0106371)
(-0.021947 -0.0205275 0.00975384)
(-0.0198034 -0.0184989 0.0166295)
(-0.0217196 -0.0127585 0.0106013)
(-0.0248992 -0.0163958 0.00977263)
(-0.0224652 -0.014715 0.0166673)
(-0.0236781 -0.0088673 0.0104938)
(-0.0273188 -0.0118395 0.00970747)
(-0.0246565 -0.0105594 0.0165742)
(-0.0250927 -0.00487251 0.010337)
(-0.0291108 -0.0070898 0.00957038)
(-0.0262752 -0.00624279 0.0163656)
(-0.0259076 -0.000917929 0.010176)
(-0.0302066 -0.00234028 0.00940757)
(-0.0272658 -0.0019481 0.0161059)
(-0.026088 0.00290215 0.0100516)
(-0.0305718 0.00225668 0.00926313)
(-0.0276044 0.00218675 0.0158665)
(-0.0256053 0.00655717 0.00999647)
(-0.0301831 0.00662663 0.00917649)
(-0.0272736 0.00609735 0.0157167)
(-0.0244228 0.0100567 0.0100229)
(-0.0290212 0.0107679 0.00917114)
(-0.0262465 0.00978884 0.0157114)
(-0.0225039 0.0134071 0.0101099)
(-0.0270504 0.0146996 0.00924707)
(-0.0244711 0.0132947 0.0158585)
(-0.0198548 0.0165677 0.0102131)
(-0.0242455 0.0184133 0.00937267)
(-0.0219155 0.0166265 0.016089)
(-0.016563 0.0194387 0.0102894)
(-0.0206494 0.0218381 0.00948932)
(-0.0186231 0.0197235 0.0162908)
(-0.0127891 0.0218995 0.0103074)
(-0.0164019 0.0248424 0.00954607)
(-0.0147318 0.0224536 0.016384)
(-0.00872638 0.0238431 0.0102569)
(-0.0117205 0.0272802 0.00951969)
(-0.0104501 0.0246704 0.0163465)
(-0.00457095 0.0251855 0.0101631)
(-0.00684595 0.029049 0.00942656)
(-0.00600362 0.0262696 0.0162009)
(-0.00048467 0.0258786 0.0100686)
(-0.00198814 0.0300846 0.00931196)
(-0.0015938 0.0271968 0.0160065)
(0.00342191 0.0259025 0.0100126)
(0.00269078 0.0303614 0.00921729)
(0.00262837 0.0274386 0.0158326)
(0.00711077 0.0252469 0.0100252)
(0.00710789 0.0298659 0.00918066)
(0.00658891 0.0269914 0.0157492)
(0.0112545 0.0285925 0.00922252)
(0.010287 0.0258442 0.0158081)
(0.0203411 0.0286583 0.0085333)
(0.0159956 0.0315988 0.00839581)
(0.0203329 0.0329052 0.00756823)
(0.0193317 0.0305317 0.0136724)
(0.0243595 0.0248008 0.00869311)
(0.0248713 0.0291515 0.0077365)
(0.0235077 0.0269559 0.0139986)
(0.0279176 0.0201521 0.00880895)
(0.029 0.024443 0.00788654)
(0.0273213 0.0224668 0.0142767)
(0.0308615 0.0149379 0.00883703)
(0.0325414 0.0189599 0.00795552)
(0.0305905 0.0172563 0.0143975)
(0.0330731 0.00941745 0.00878127)
(0.0353254 0.0129814 0.00792644)
(0.0331415 0.0116025 0.0143483)
(0.0344831 0.00383537 0.00867882)
(0.037249 0.00680783 0.00782793)
(0.0348732 0.00579361 0.0141728)
(0.0350598 -0.00159984 0.00857233)
(0.0382713 0.000707382 0.00770621)
(0.0357521 8.34133e-05 0.0139339)
(0.0347871 -0.00675382 0.00850001)
(0.0383774 -0.00511364 0.00760158)
(0.0357762 -0.00533974 0.0137066)
(0.0336543 -0.0116063 0.00848887)
(0.0375333 -0.0105763 0.00754886)
(0.034937 -0.0103951 0.0135732)
(0.0316424 -0.0161784 0.00855115)
(0.0357465 -0.0157042 0.0075669)
(0.0332354 -0.0151033 0.0135991)
(0.0287106 -0.0204892 0.0086783)
(0.0329911 -0.0205332 0.00767104)
(0.030622 -0.0195249 0.0138077)
(0.0248626 -0.0244872 0.00882553)
(0.029232 -0.0250588 0.00783124)
(0.0270449 -0.0236823 0.0141204)
(0.0202218 -0.0280352 0.00892695)
(0.0245156 -0.0291805 0.00797168)
(0.0225529 -0.0274844 0.014384)
(0.0150139 -0.0309765 0.00893899)
(0.0190222 -0.0327177 0.00802979)
(0.0173379 -0.0307463 0.0144898)
(0.00949896 -0.0331914 0.00886561)
(0.0130334 -0.0354987 0.00798856)
(0.0116802 -0.0332924 0.0144248)
(0.00392492 -0.0346103 0.008744)
(0.00685258 -0.0374196 0.0078764)
(0.00587111 -0.0350219 0.0142327)
(-0.00149671 -0.0352031 0.0086171)
(0.000752257 -0.0384408 0.00773977)
(0.000167771 -0.0359029 0.0139766)
(-0.00663056 -0.0349566 0.00852333)
(-0.00505801 -0.0385503 0.00761918)
(-0.00523963 -0.0359367 0.0137313)
(-0.0114597 -0.0338635 0.00848977)
(-0.0104996 -0.037718 0.0075495)
(-0.0102714 -0.0351177 0.0135784)
(-0.0160125 -0.0319103 0.0085283)
(-0.0156005 -0.0359556 0.00754963)
(-0.0149528 -0.03345 0.0135828)
(-0.0203201 -0.0290469 0.00863154)
(-0.020405 -0.033239 0.00763516)
(-0.0193541 -0.0308868 0.0137664)
(-0.0243231 -0.0252728 0.00875561)
(-0.0249113 -0.0295273 0.00777762)
(-0.0234992 -0.0273673 0.0140561)
(-0.0278919 -0.0207041 0.00883412)
(-0.0290224 -0.0248652 0.00790116)
(-0.0273006 -0.0229385 0.0142966)
(-0.0308696 -0.0155563 0.00882437)
(-0.0325625 -0.0194274 0.00794366)
(-0.0305774 -0.0177855 0.0143794)
(-0.0331323 -0.0100856 0.00872998)
(-0.0353596 -0.0134879 0.00788824)
(-0.033152 -0.0121796 0.0142934)
(-0.0346076 -0.00453098 0.00858738)
(-0.0373095 -0.00734404 0.00776193)
(-0.034923 -0.00640594 0.0140805)
(-0.0352557 0.000899944 0.00844157)
(-0.0383677 -0.00126178 0.0076123)
(-0.0358516 -0.000714445 0.0138052)
(-0.0350528 0.00607085 0.0083354)
(-0.0385152 0.00455287 0.00748209)
(-0.03593 0.00470742 0.0135446)
(-0.0339824 0.0109587 0.00829914)
(-0.0377137 0.0100196 0.00741007)
(-0.0351434 0.00977686 0.013384)
(-0.0320203 0.0155816 0.00834388)
(-0.0359673 0.0151612 0.00741556)
(-0.0334894 0.0145121 0.0133903)
(-0.0291235 0.0199519 0.00845929)
(-0.0332477 0.0200124 0.00751164)
(-0.0309148 0.0189705 0.0135859)
(-0.025294 0.0240156 0.00859944)
(-0.0295179 0.0245667 0.00766774)
(-0.0273661 0.0231716 0.0138913)
(-0.0206535 0.0276324 0.00869725)
(-0.0248229 0.0287233 0.0078071)
(-0.0228911 0.0270227 0.0141521)
(-0.0154259 0.0306392 0.00870944)
(-0.0193407 0.0322999 0.00786664)
(-0.0176792 0.0303359 0.0142595)
(-0.00987291 0.0329098 0.00863977)
(-0.013351 0.0351211 0.00782924)
(-0.0120092 0.0329307 0.0142007)
(-0.00424229 0.0343706 0.00852521)
(-0.00715522 0.0370797 0.00772294)
(-0.00617166 0.0347026 0.014018)
(0.00125136 0.0349856 0.00840979)
(-0.00102459 0.0381319 0.00759494)
(-0.000423612 0.0356145 0.0137747)
(0.00646678 0.0347365 0.00833395)
(0.00483081 0.0382609 0.00748662)
(0.00504207 0.0356626 0.0135467)
(0.0113762 0.0336127 0.00832585)
(0.0103269 0.0374326 0.00743471)
(0.0101388 0.0348377 0.0134173)
(0.0154829 0.0356549 0.00745767)
(0.0148826 0.0331427 0.0134522)
(0.0249421 0.0335598 0.0067247)
(0.0198478 0.0371454 0.00658325)
(0.0234169 0.0353346 0.0110551)
(0.0237368 0.0371782 0.00584715)
(0.0296623 0.0288944 0.00688316)
(0.0282656 0.0310734 0.0114047)
(0.028869 0.0328447 0.00601991)
(0.0338178 0.023287 0.00698601)
(0.0326815 0.0257404 0.0116876)
(0.0335329 0.0274128 0.0061582)
(0.0372069 0.0170018 0.0069974)
(0.0364196 0.0195509 0.0117958)
(0.037498 0.02108 0.00620541)
(0.0396969 0.0103501 0.00692514)
(0.0392746 0.0128364 0.0117268)
(0.0405672 0.0141683 0.00615228)
(0.0412278 0.00364015 0.00680696)
(0.0411507 0.00594824 0.011528)
(0.042642 0.007036 0.0060328)
(0.041779 -0.00285605 0.00668673)
(0.0420328 -0.000793983 0.0112629)
(0.043704 2.21078e-05 0.00589654)
(0.04131 -0.00895747 0.00660137)
(0.0419245 -0.00714507 0.011012)
(0.0437497 -0.00658653 0.00578891)
(0.0398055 -0.0146898 0.0065775)
(0.0407695 -0.0130231 0.0108588)
(0.0426669 -0.0127348 0.00574045)
(0.0372747 -0.0200841 0.00663734)
(0.0386286 -0.0184924 0.0108778)
(0.0405223 -0.0185187 0.00576592)
(0.0336668 -0.0251767 0.00677479)
(0.0354518 -0.023638 0.0111062)
(0.0372893 -0.0239806 0.00588218)
(0.0289766 -0.0298952 0.00692836)
(0.0311669 -0.0284873 0.0114495)
(0.0329193 -0.0291145 0.00605091)
(0.0233427 -0.0340469 0.00702538)
(0.0258073 -0.0329019 0.0117257)
(0.0274486 -0.0337754 0.00618445)
(0.0170318 -0.037429 0.00703004)
(0.0195906 -0.0366352 0.0118266)
(0.0210775 -0.0377319 0.00622624)
(0.0103586 -0.039909 0.00694986)
(0.0128513 -0.0394816 0.0117496)
(0.0141313 -0.0407867 0.00616723)
(0.00363521 -0.0414284 0.00682252)
(0.00594473 -0.0413463 0.0115417)
(0.00697232 -0.0428434 0.00604124)
(-0.00286218 -0.041969 0.00669211)
(-0.000805447 -0.0422167 0.0112669)
(-5.55521e-05 -0.0438865 0.0058978)
(-0.00895094 -0.0414931 0.00659552)
(-0.00715126 -0.0420991 0.0110052)
(-0.00666178 -0.0439155 0.00578242)
(-0.0146595 -0.0399892 0.00655947)
(-0.0130113 -0.0409393 0.0108401)
(-0.0127925 -0.0428201 0.00572522)
(-0.0200233 -0.03747 0.00660684)
(-0.0184537 -0.038802 0.0108461)
(-0.0185481 -0.0406714 0.00574118)
(-0.025084 -0.0338839 0.00673216)
(-0.0235683 -0.0356393 0.0110612)
(-0.0239755 -0.0374455 0.00584856)
(-0.0297725 -0.0292244 0.00687455)
(-0.0283866 -0.0313772 0.0113917)
(-0.0290726 -0.0330928 0.0060091)
(-0.0339006 -0.0236282 0.00696233)
(-0.0327743 -0.0260485 0.0116563)
(-0.033698 -0.0276488 0.00613581)
(-0.0372686 -0.0173573 0.00695936)
(-0.0364884 -0.0198677 0.0117474)
(-0.0376238 -0.0213118 0.0061727)
(-0.039745 -0.010722 0.00687221)
(-0.0393251 -0.013165 0.0116622)
(-0.0406554 -0.0144036 0.00610945)
(-0.0412711 -0.00402963 0.00673911)
(-0.0411902 -0.00629073 0.0114479)
(-0.0426978 -0.00728275 0.00597936)
(-0.0418261 0.00244849 0.00660537)
(-0.0420695 0.000436155 0.0111691)
(-0.0437359 -0.000288226 0.00583338)
(-0.0413689 0.00853155 0.00650957)
(-0.0419662 0.00677099 0.0109067)
(-0.0437687 0.00629327 0.00571744)
(-0.0398832 0.0142467 0.00647946)
(-0.0408232 0.0126323 0.0107454)
(-0.0426852 0.0124085 0.00566362)
(-0.037377 0.019627 0.00653662)
(-0.0387002 0.018086 0.0107601)
(-0.0405522 0.0181573 0.00568659)
(-0.0337982 0.0247104 0.00667395)
(-0.0355468 0.0232187 0.0109877)
(-0.0373431 0.0235861 0.00580298)
(-0.0291402 0.0294266 0.00682966)
(-0.0312896 0.02806 0.011333)
(-0.0330075 0.0286927 0.00597391)
(-0.0235385 0.0335841 0.00693084)
(-0.0259605 0.0324733 0.0116139)
(-0.0275796 0.033336 0.00611166)
(-0.0172566 0.0369802 0.00694075)
(-0.019774 0.0362129 0.0117217)
(-0.0212555 0.0372869 0.00615926)
(-0.0106054 0.039481 0.0068666)
(-0.0130612 0.0390727 0.0116534)
(-0.0143555 0.0403487 0.00610645)
(-0.00389337 0.0410256 0.00674672)
(-0.00617341 0.0409566 0.0114559)
(-0.00723611 0.0424235 0.00598693)
(0.00260722 0.0415925 0.00662566)
(0.000569875 0.0418489 0.0111931)
(-0.000234476 0.043493 0.00585113)
(0.00871397 0.0411411 0.00654104)
(0.00692296 0.0417532 0.0109452)
(0.00636402 0.0435539 0.00574437)
(0.0144507 0.0396558 0.00651986)
(0.0128026 0.0406138 0.0107964)
(0.0125038 0.0424942 0.00569828)
(0.0182722 0.0384907 0.0108209)
(0.0182803 0.0403783 0.00572733)
(0.00642099 0.0063861 0.0141447)
(0.00541908 0.00724348 0.0142141)
(0.00741055 0.0115805 0.0184095)
(0.00681975 0.00757253 0.0226949)
(0.00743524 0.00528289 0.0140769)
(0.00904483 0.0102764 0.0185264)
(0.0078454 0.00641623 0.0227145)
(0.0084001 0.00393136 0.0139589)
(0.0106253 0.00858363 0.0185967)
(0.00886696 0.00493928 0.0227058)
(0.00923222 0.00236107 0.0138201)
(0.0120672 0.006544 0.0185836)
(0.00979003 0.00316994 0.0226045)
(0.00979944 0.00067389 0.0136483)
(0.0132343 0.00426255 0.01851)
(0.0104795 0.00122929 0.0224219)
(0.0100217 -0.00106764 0.0134628)
(0.0140039 0.00186649 0.0183376)
(0.010817 -0.000728463 0.0221705)
(0.00989836 -0.00268875 0.0132772)
(0.0143289 -0.000502146 0.0181575)
(0.0107692 -0.00258309 0.0218787)
(0.00952848 -0.00419149 0.013108)
(0.0142867 -0.00271534 0.0179567)
(0.0104171 -0.00424728 0.0215854)
(0.00900399 -0.00548983 0.0130343)
(0.0139348 -0.00472242 0.0178394)
(0.00987457 -0.00565361 0.0213758)
(0.00830491 -0.00669786 0.0130679)
(0.0133046 -0.00656398 0.0178488)
(0.00917191 -0.00684804 0.0213184)
(0.00738065 -0.00783265 0.0131841)
(0.0123232 -0.0083132 0.0179806)
(0.00823807 -0.00794666 0.0214217)
(0.00617835 -0.00890782 0.0133319)
(0.010944 -0.0100007 0.0181786)
(0.00700666 -0.0090029 0.0216256)
(0.00470041 -0.00985982 0.0134342)
(0.00915319 -0.0115991 0.0183626)
(0.00544683 -0.0100017 0.0218369)
(0.00298834 -0.0105893 0.0134851)
(0.00699737 -0.0130106 0.018442)
(0.00359946 -0.0108465 0.0219745)
(0.00114039 -0.0109583 0.0135059)
(0.0045882 -0.014086 0.018454)
(0.00158688 -0.0114 0.0219904)
(-0.000708927 -0.01088 0.0134741)
(0.00207041 -0.0146923 0.0183821)
(-0.000431734 -0.0115463 0.0219448)
(-0.00246805 -0.0104268 0.0134838)
(-0.000394088 -0.0148194 0.0182555)
(-0.00233478 -0.0112676 0.0218474)
(-0.00399055 -0.00974122 0.0135966)
(-0.00265368 -0.01456 0.0182099)
(-0.00401471 -0.0106937 0.021776)
(-0.00522252 -0.00891369 0.0137686)
(-0.00462535 -0.0140052 0.0182418)
(-0.00537173 -0.00995249 0.0218291)
(-0.00623711 -0.00795892 0.0139773)
(-0.00635463 -0.0131784 0.018355)
(-0.00644503 -0.00907086 0.0220151)
(-0.00716305 -0.00682009 0.0142026)
(-0.00794968 -0.0120761 0.0185569)
(-0.00738252 -0.00800977 0.022307)
(-0.00796974 -0.00550158 0.0144006)
(-0.00943105 -0.0106258 0.0187848)
(-0.00826216 -0.00670505 0.0226615)
(-0.00866265 -0.00400235 0.0145243)
(-0.0108085 -0.00884448 0.0189524)
(-0.00908486 -0.00513999 0.0229782)
(-0.00919091 -0.00237601 0.0145617)
(-0.0120343 -0.0067801 0.0190127)
(-0.00979093 -0.00335266 0.0231722)
(-0.0094697 -0.00070594 0.0145206)
(-0.0130021 -0.00453446 0.0189567)
(-0.0102745 -0.00145889 0.0232229)
(-0.00944068 0.000918414 0.0144291)
(-0.013604 -0.00222506 0.0188041)
(-0.0104385 0.000401082 0.0231469)
(-0.00913017 0.00239966 0.0143183)
(-0.0138169 2.10671e-05 0.0186033)
(-0.0102638 0.00212433 0.0230006)
(-0.00861692 0.00367035 0.0142273)
(-0.0136978 0.00209129 0.0184068)
(-0.00983165 0.00363709 0.0228318)
(-0.00796696 0.00473963 0.014208)
(-0.0133046 0.00394229 0.0182832)
(-0.009232 0.00487864 0.0227242)
(-0.0071942 0.00567852 0.0142793)
(-0.0126473 0.0056197 0.0182839)
(-0.00849532 0.00590243 0.0227502)
(-0.00625865 0.00655259 0.0144195)
(-0.011684 0.00720603 0.0184042)
(-0.00757364 0.00683586 0.022915)
(-0.00511465 0.00737888 0.0145833)
(-0.0103616 0.00873954 0.0185925)
(-0.00639684 0.00774516 0.0231679)
(-0.00376419 0.00811901 0.0147177)
(-0.00866905 0.0102021 0.018768)
(-0.00493338 0.0086236 0.0234166)
(-0.00226621 0.00870259 0.0147871)
(-0.00665611 0.0115168 0.0188667)
(-0.00322304 0.00938933 0.0235753)
(-0.000713321 0.00904617 0.0147846)
(-0.00443519 0.0125691 0.0188671)
(-0.00138888 0.00992743 0.0236062)
(0.000799019 0.00908952 0.0147252)
(-0.00214286 0.0132466 0.0187825)
(0.00041161 0.0101423 0.0235181)
(0.00217763 0.0088546 0.0146201)
(9.29173e-05 0.0135145 0.0186481)
(0.00207677 0.0100143 0.0233496)
(0.00336951 0.0084379 0.0144746)
(0.00216377 0.0134382 0.0185013)
(0.00354583 0.00963055 0.0231277)
(0.00442068 0.00790749 0.0143273)
(0.00402856 0.0131016 0.018383)
(0.00476587 0.00910089 0.0229095)
(0.00574938 0.0125048 0.018353)
(0.00581211 0.00844191 0.0227545)
(0.0103385 0.0161459 0.0232362)
(0.00794548 0.0175988 0.0229774)
(0.0121087 0.0208244 0.0229412)
(0.0105123 0.0178687 0.0310619)
(0.0126239 0.0141439 0.0235078)
(0.0149507 0.0185452 0.0232914)
(0.0128854 0.0158587 0.0314761)
(0.0147369 0.011649 0.0236981)
(0.0176063 0.0156226 0.0235827)
(0.0151608 0.0132487 0.0318273)
(0.016558 0.00878093 0.0237601)
(0.0199568 0.012182 0.0237212)
(0.0172093 0.0101616 0.0319828)
(0.0179663 0.00569545 0.023691)
(0.0218561 0.00840478 0.0236893)
(0.0188653 0.00678165 0.0319161)
(0.018893 0.00257351 0.0235249)
(0.0231935 0.00449574 0.0235174)
(0.0200105 0.00332115 0.0316693)
(0.019346 -0.00042121 0.0233291)
(0.023935 0.000656443 0.0232704)
(0.0206163 -1.27512e-05 0.0313276)
(0.0193582 -0.00321591 0.0231813)
(0.0241017 -0.00297149 0.0230386)
(0.0207341 -0.00308252 0.031002)
(0.0189239 -0.00582847 0.023149)
(0.0237143 -0.00634441 0.022912)
(0.0203969 -0.00586759 0.0308131)
(0.0179923 -0.00831296 0.0232604)
(0.0227459 -0.00949578 0.0229622)
(0.0195675 -0.00843314 0.030846)
(0.016504 -0.0107107 0.0234791)
(0.0211343 -0.012483 0.0231931)
(0.0181571 -0.0108683 0.0311136)
(0.0144438 -0.0130094 0.0237177)
(0.0188311 -0.0153346 0.0235123)
(0.0161066 -0.0132365 0.0315061)
(0.011869 -0.0151266 0.0238818)
(0.0158657 -0.0179986 0.0237781)
(0.0134437 -0.0155055 0.0318456)
(0.00890197 -0.0169333 0.0239218)
(0.0123645 -0.0203444 0.0238926)
(0.0102924 -0.0175383 0.0319999)
(0.00571708 -0.0182994 0.0238358)
(0.00851935 -0.0222165 0.0238397)
(0.00684534 -0.0191639 0.0319413)
(0.00252218 -0.0191621 0.0236621)
(0.00455371 -0.023502 0.0236491)
(0.00332986 -0.0202611 0.0317117)
(-0.000500877 -0.0195396 0.0234705)
(0.000688352 -0.0241769 0.0233901)
(-2.94297e-05 -0.0208118 0.0313948)
(-0.00326942 -0.0194738 0.0233318)
(-0.00292498 -0.024278 0.0231498)
(-0.00308542 -0.0208703 0.0310971)
(-0.00580936 -0.0189762 0.0232946)
(-0.00624536 -0.0238396 0.0230125)
(-0.0058174 -0.0204821 0.0309307)
(-0.00823138 -0.0179959 0.0233957)
(-0.0093288 -0.0228455 0.0230338)
(-0.00831022 -0.019622 0.0309781)
(-0.0104868 -0.016536 0.0235992)
(-0.0122162 -0.0212184 0.0232381)
(-0.0106531 -0.0182197 0.0312672)
(-0.0126462 -0.0145581 0.0237965)
(-0.0149557 -0.0189637 0.0235171)
(-0.0129099 -0.0162288 0.0316645)
(-0.0146502 -0.012122 0.0238996)
(-0.0175275 -0.0160981 0.0237305)
(-0.0150828 -0.0136726 0.0319847)
(-0.0163942 -0.00933786 0.0238629)
(-0.0198215 -0.0127314 0.0237848)
(-0.0170573 -0.0106626 0.0321009)
(-0.017766 -0.00634633 0.023689)
(-0.0216958 -0.00903682 0.0236662)
(-0.0186752 -0.00737268 0.0319867)
(-0.0186937 -0.00331902 0.0234184)
(-0.0230416 -0.00521057 0.0234072)
(-0.0198182 -0.00400309 0.0316863)
(-0.019175 -0.000404208 0.0231229)
(-0.0238184 -0.00144158 0.0230769)
(-0.020452 -0.000748798 0.0312867)
(-0.0192337 0.00233193 0.0228866)
(-0.0240375 0.00213617 0.0227681)
(-0.0206149 0.00226016 0.0309068)
(-0.0188593 0.00490282 0.0227787)
(-0.0237092 0.005478 0.022576)
(-0.0203383 0.00500348 0.03067)
(-0.0179987 0.00735575 0.0228273)
(-0.0228053 0.00861418 0.02257)
(-0.019579 0.00754431 0.0306653)
(-0.0165903 0.00973672 0.0229971)
(-0.0212595 0.0115993 0.0227584)
(-0.0182456 0.00997171 0.0309063)
(-0.0146168 0.0120354 0.0231989)
(-0.0190247 0.0144612 0.0230469)
(-0.0162763 0.012348 0.031282)
(-0.0121368 0.0141721 0.023339)
(-0.0161292 0.0171512 0.0232921)
(-0.0136958 0.0146426 0.0316112)
(-0.0092706 0.0160254 0.0233667)
(-0.0126946 0.0195417 0.0233973)
(-0.0106237 0.0167215 0.0317611)
(-0.00617329 0.0174732 0.0232808)
(-0.00890594 0.0214803 0.0233445)
(-0.00724502 0.0184159 0.031701)
(-0.00302854 0.018435 0.0231161)
(-0.00497363 0.0228535 0.0231654)
(-0.00377329 0.0196014 0.031471)
(-3.43292e-06 0.0189081 0.0229364)
(-0.00110144 0.0236173 0.0229224)
(-0.000417345 0.0202388 0.0311516)
(0.00281948 0.0189315 0.0228182)
(0.0025605 0.0237912 0.0227039)
(0.00267751 0.0203753 0.0308553)
(0.00545296 0.0185098 0.0228247)
(0.00595966 0.0234006 0.0226008)
(0.00548501 0.0200566 0.030698)
(0.00912344 0.0224293 0.0226793)
(0.00806725 0.0192491 0.0307646)
(0.016901 0.0234652 0.022987)
(0.0134075 0.0259369 0.0226301)
(0.0176976 0.0276603 0.0213225)
(0.0165531 0.0255749 0.0301593)
(0.0201753 0.0201954 0.0233607)
(0.0214494 0.0243667 0.0217805)
(0.0199504 0.0224339 0.0307835)
(0.0231077 0.0162539 0.0236022)
(0.0249015 0.0202246 0.0221465)
(0.0231341 0.0184543 0.0312916)
(0.0255454 0.0118466 0.0236462)
(0.0278743 0.0154213 0.022295)
(0.0258988 0.0138489 0.0314982)
(0.0273692 0.00720001 0.0235089)