/*--------------------------------*- C++ -*----------------------------------*\
| =========                 |                                                 |
| \\      /  F ield         | OpenFOAM: The Open Source CFD Toolbox           |
|  \\    /   O peration     | Version:  2107                                  |
|   \\  /    A nd           | Website:  www.openfoam.com                      |
|    \\/     M anipulation  |                                                 |
\*---------------------------------------------------------------------------*/
FoamFile
{
    version     2.0;
    format      binary;
    arch        "LSB;label=32;scalar=64";
    class       scalarField;
    location    "0.025/lagrangian/kinematicCloud";
    object      d;
}
// * * * * * * * * * * * * * * * * * * * * * * * * * * * * * * * * * * * * * //


100
(MbP?MbP?MbP?MbP?MbP?MbP?MbP?MbP?MbP?MbP?MbP?MbP?MbP?MbP?MbP?MbP?MbP?MbP?MbP?MbP?MbP?MbP?MbP?MbP?MbP?MbP?MbP?MbP?MbP?MbP?MbP?MbP?MbP?MbP?MbP?MbP?MbP?MbP?MbP?MbP?MbP?MbP?MbP?MbP?MbP?MbP?MbP?MbP?MbP?MbP?MbP?MbP?MbP?MbP?MbP?MbP?MbP?MbP?MbP?MbP?MbP?MbP?MbP?MbP?MbP?MbP?MbP?MbP?MbP?MbP?MbP?MbP?MbP?MbP?MbP?MbP?MbP?MbP?MbP?MbP?MbP?MbP?MbP?MbP?MbP?MbP?MbP?MbP?MbP?MbP?MbP?MbP?MbP?MbP?MbP?MbP?MbP?MbP?MbP?MbP?)

// ************************************************************************* //
