/*--------------------------------*- C++ -*----------------------------------*\
| =========                 |                                                 |
| \\      /  F ield         | OpenFOAM: The Open Source CFD Toolbox           |
|  \\    /   O peration     | Version:  2112                                  |
|   \\  /    A nd           | Website:  www.openfoam.com                      |
|    \\/     M anipulation  |                                                 |
\*---------------------------------------------------------------------------*/
FoamFile
{
    version     2.0;
    format      ascii;
    arch        "LSB;label=32;scalar=64";
    class       Cloud<basicKinematicParcel>;
    location    "1/lagrangian/kinematicCloud";
    object      coordinates;
}
// * * * * * * * * * * * * * * * * * * * * * * * * * * * * * * * * * * * * * //

100
(
(0.00999932 0.337883 0.535374 0.116744) 5 78525 2
(0.00843887 0.493983 0.396987 0.100591) 7 78527 1
(0.0636617 0.430069 0.0370319 0.469238) 9 78529 1
(0.00790688 0.149959 0.66137 0.180765) 8 78528 2
(0.00218858 0.433192 0.274064 0.290555) 8 78528 1
(0.00476902 0.339495 0.327991 0.327744) 10 78530 1
(0.00293081 0.288937 0.579711 0.128421) 14 78534 1
(0.00744263 0.124074 0.544248 0.324235) 14 78534 1
(0.00462703 0.281174 0.248847 0.465352) 11 78531 1
(0.0573841 0.169137 0.0323748 0.741104) 14 78534 1
(0.000991602 0.50461 0.454144 0.0402543) 6 78526 1
(0.0145266 0.0196932 0.427831 0.537949) 3 78523 2
(0.0176933 0.55908 0.245392 0.177835) 4 78524 1
(0.120619 0.507431 0.31075 0.0611994) 4 78524 1
(0.00181128 0.552707 0.026299 0.419183) 3 78523 1
(0.00838302 0.573003 0.0958607 0.322754) 1 78521 1
(0.0271639 0.569959 0.331707 0.0711707) 2 78522 1
(0.0510831 0.429783 0.390299 0.128835) 1 78521 2
(0.115687 0.38432 0.416582 0.083412) 0 78520 2
(0.09255 0.199385 0.416853 0.291212) 39 78559 2
(0.00410023 0.11607 0.632298 0.247532) 9 78529 2
(0.00105772 0.389287 0.469081 0.140574) 11 78531 1
(0.00532394 0.437043 0.188448 0.369185) 12 78532 1
(0.0103286 0.298197 0.381489 0.309985) 11 78531 1
(0.00163217 0.395272 0.423352 0.179744) 12 78532 1
(0.00433329 0.113095 0.563909 0.318662) 13 78533 2
(0.113604 0.284002 0.502726 0.0996672) 12 78532 2
(0.00169675 0.420752 0.552236 0.0253149) 13 78533 2
(0.0116674 0.263096 0.35329 0.371947) 16 78536 1
(0.0323255 0.259766 0.209905 0.498003) 16 78536 1
(0.0108446 0.372129 0.261045 0.355982) 9 78529 1
(0.128684 0.398593 0.370487 0.102235) 8 78528 1
(0.00320575 0.48648 0.490905 0.0194086) 7 78527 1
(0.0100986 0.475892 0.322025 0.191984) 6 78526 1
(0.0134399 0.0950707 0.507379 0.384111) 7 78527 2
(0.0584212 0.438567 0.397174 0.105838) 6 78526 1
(0.0061351 0.000493756 0.482827 0.510544) 5 78525 2
(0.000654906 0.435922 0.345259 0.218164) 5 78525 1
(0.0111108 0.421454 0.194892 0.372543) 5 78525 1
(0.00239841 0.500578 0.183055 0.313969) 4 78524 1
(0.00644889 0.304789 0.285154 0.403608) 11 78531 1
(0.000235974 0.302434 0.238019 0.459312) 15 78535 1
(0.029059 0.380866 0.160413 0.429661) 14 78534 1
(0.0120038 0.00511855 0.676203 0.306675) 14 78534 2
(0.0434085 0.318673 0.46193 0.175989) 15 78535 1
(0.00159153 0.311115 0.039677 0.647616) 15 78535 1
(0.00403994 0.3179 0.669319 0.00874108) 16 78536 2
(0.0638472 0.313797 0.597325 0.0250312) 17 78537 1
(0.0119863 0.152932 0.167529 0.667552) 17 78537 1
(0.009765 0.255677 0.654172 0.0803866) 16 78536 2
(1.29251e-05 0.23893 0.571973 0.189084) 12 78532 2
(0.00170947 0.00298705 0.511054 0.48425) 12 78532 2
(0.000681125 0.47215 0.0596939 0.467475) 10 78530 1
(0.0102352 0.333461 0.654173 0.00213104) 11 78531 2
(0.0101753 0.368212 0.33338 0.288232) 12 78532 1
(0.0106835 0.400542 0.292855 0.295919) 10 78530 1
(0.000149554 0.121963 0.636998 0.240889) 9 78529 2
(0.00889568 0.408487 0.137972 0.444645) 7 78527 1
(0.0285544 0.0167056 0.499501 0.455239) 7 78527 2
(0.0109673 0.192155 0.587334 0.209544) 7 78527 2
(0.0103139 0.420081 0.225928 0.343677) 16 78536 1
(0.00477415 0.24402 0.696757 0.0544487) 18 78538 1
(0.00123693 0.419246 0.175513 0.404004) 17 78537 1
(0.00440991 0.318905 0.0951924 0.581492) 17 78537 1
(0.00429235 0.509463 0.111243 0.375002) 18 78538 1
(0.0131035 0.343515 0.385897 0.257484) 17 78537 1
(0.0231722 0.354522 0.0265348 0.595771) 18 78538 1
(0.00937992 0.387764 0.154892 0.447963) 18 78538 1
(0.0117335 0.0313136 0.30369 0.653263) 59 78579 2
(0.00589661 0.221643 0.643169 0.129291) 20 78540 1
(0.0124832 0.469009 0.469548 0.0489594) 16 78536 1
(0.00646204 0.31425 0.518394 0.160894) 15 78535 2
(0.0187757 0.398549 0.144157 0.438518) 15 78535 1
(0.0144218 0.380104 0.576635 0.02884) 15 46 1
(0.00973485 0.452095 0.364293 0.173876) 13 78533 1
(0.00988651 0.509629 0.428904 0.0515805) 13 78533 1
(0.0110458 0.373129 0.580342 0.0354828) 11 78531 2
(0.0107342 0.350669 0.518662 0.119934) 10 78530 2
(0.0113046 0.390761 0.302477 0.295457) 9 78529 1
(0.0171603 0.380135 0.471165 0.13154) 9 78529 1
(0.0123063 0.181067 0.516702 0.289925) 17 78537 2
(0.0437438 0.471226 0.0497446 0.435286) 17 49 1
(0.0114302 0.00632805 0.541349 0.440893) 19 78539 1
(0.00996513 0.503018 0.347789 0.139228) 19 78539 1
(0.00234788 0.198284 0.504146 0.295222) 18 78538 2
(0.00183058 0.406157 0.365151 0.226861) 20 78540 1
(0.0272333 0.0682889 0.878652 0.0258259) 20 78540 2
(0.248621 0.288832 0.258494 0.204053) 59 78579 2
(0.0158333 0.30456 0.530352 0.149254) 20 78540 1
(0.0123782 0.16499 0.787808 0.0348238) 21 78541 1
(0.00925187 0.480296 0.425401 0.0850513) 17 78537 2
(0.0480365 0.484552 0.0515641 0.415847) 14 78534 1
(0.000361385 0.394805 0.10113 0.503704) 12 78532 1
(0.0368265 0.544902 0.342227 0.0760444) 14 78534 1
(0.026237 0.458062 0.447031 0.0686702) 13 78533 2
(0.0111691 0.544031 0.0624247 0.382375) 13 78533 1
(0.0103063 0.43738 0.316801 0.235512) 12 78532 1
(0.0045408 0.369172 0.135948 0.490339) 11 78531 1
(0.00989871 0.405075 0.512392 0.0726344) 10 78530 1
(0.00234381 0.347747 0.49559 0.154318) 10 78530 2
)


// ************************************************************************* //
