/*--------------------------------*- C++ -*----------------------------------*\
| =========                 |                                                 |
| \\      /  F ield         | OpenFOAM: The Open Source CFD Toolbox           |
|  \\    /   O peration     | Version:  2112                                  |
|   \\  /    A nd           | Website:  www.openfoam.com                      |
|    \\/     M anipulation  |                                                 |
\*---------------------------------------------------------------------------*/
FoamFile
{
    version     2.0;
    format      ascii;
    arch        "LSB;label=32;scalar=64";
    class       Cloud<basicKinematicParcel>;
    location    "1/lagrangian/kinematicCloud";
    object      positions;
}
// * * * * * * * * * * * * * * * * * * * * * * * * * * * * * * * * * * * * * //

100
(
(-0.014928 -0.00267183 2.49983e-05) 5
(-0.0149763 0.000649986 2.10972e-05) 7
(-0.0137843 0.00629446 0.000159154) 9
(-0.0150076 0.00496252 1.97672e-05) 8
(-0.0148715 0.00353924 5.47146e-06) 8
(-0.0133996 0.00826979 1.19225e-05) 10
(-0.00660349 0.0146005 7.32702e-06) 14
(-0.00644849 0.0155298 1.86066e-05) 14
(-0.0119207 0.0107226 1.15676e-05) 11
(-0.00517685 0.0156539 0.00014346) 14
(-0.0148489 -0.00187039 2.479e-06) 6
(-0.013208 -0.00639159 3.63165e-05) 3
(-0.0134062 -0.00586172 4.42334e-05) 4
(-0.0133486 -0.00605305 0.000301548) 4
(-0.0127042 -0.00736912 4.52821e-06) 3
(-0.00954292 -0.0110129 2.09576e-05) 1
(-0.0107054 -0.00988319 6.79099e-05) 2
(-0.00988931 -0.0106635 0.000127708) 1
(-0.00829319 -0.0123123 0.000289216) 0
(-0.00659342 -0.0132475 0.000231375) 39
(-0.0138811 0.00724015 1.02506e-05) 9
(-0.0120963 0.00973239 2.6443e-06) 11
(-0.0097622 0.0117238 1.33099e-05) 12
(-0.0121228 0.0103502 2.58216e-05) 11
(-0.0103193 0.0115505 4.08044e-06) 12
(-0.00682204 0.0137114 1.08332e-05) 13
(-0.00923386 0.0121677 0.000284011) 12
(-0.00731317 0.0133514 4.24188e-06) 13
(-0.00110471 0.0160709 2.91685e-05) 16
(-0.000730313 0.0160591 8.08136e-05) 16
(-0.0143266 0.00609036 2.71115e-05) 9
(-0.0148422 0.00316201 0.000321711) 8
(-0.0150497 0.000423262 8.01438e-06) 7
(-0.0149931 -0.00145971 2.52466e-05) 6
(-0.0148458 0.00251801 3.35998e-05) 7
(-0.0150553 -0.00164821 0.000146053) 6
(-0.0147972 -0.00198416 1.53378e-05) 5
(-0.0148058 -0.00379133 1.63727e-06) 5
(-0.0149429 -0.00337829 2.77769e-05) 5
(-0.0138306 -0.00567193 5.99602e-06) 4
(-0.0119353 0.0105237 1.61222e-05) 11
(-0.00333536 0.0155851 5.89935e-07) 15
(-0.00557748 0.0144394 7.26476e-05) 14
(-0.00457026 0.0152403 3.00096e-05) 14
(-0.00399362 0.0152572 0.000108521) 15
(-0.00281485 0.0156492 3.97882e-06) 15
(-0.00024158 0.0158185 1.00999e-05) 16
(0.000527792 0.0157607 0.000159618) 17
(0.00224415 0.0165124 2.99658e-05) 17
(-0.000127974 0.0157641 2.44125e-05) 16
(-0.00908696 0.0123468 3.23126e-08) 12
(-0.00855896 0.0123904 4.27367e-06) 12
(-0.0126189 0.00827708 1.70281e-06) 10
(-0.0113405 0.0109434 2.5588e-05) 11
(-0.0101597 0.0118282 2.54382e-05) 12
(-0.0131625 0.00805052 2.67087e-05) 10
(-0.0138953 0.00724009 3.73885e-07) 9
(-0.0153055 0.0016007 2.22392e-05) 7
(-0.0148324 0.00265314 7.13861e-05) 7
(-0.0152519 0.00240246 2.74183e-05) 7
(-0.00108038 0.0152918 2.57847e-05) 16
(0.00308519 0.0159618 1.19354e-05) 18
(0.00147977 0.0152822 3.09231e-06) 17
(0.00198036 0.0157258 1.10248e-05) 17
(0.00369606 0.0144313 1.07309e-05) 18
(0.0011021 0.0156726 3.27588e-05) 17
(0.00443534 0.0149879 5.79305e-05) 18
(0.00400314 0.014965 2.34498e-05) 18
(0.00896297 0.0167997 2.93337e-05) 59
(0.00809228 0.0142109 1.47415e-05) 20
(-0.00185286 0.0150005 3.1208e-05) 16
(-0.00260992 0.0148452 1.61551e-05) 15
(-0.0032198 0.0150752 4.69392e-05) 15
(-0.00207689 0.0154249 0.000180255) 15
(-0.0082188 0.0127697 2.43371e-05) 13
(-0.00834559 0.0123643 2.47163e-05) 13
(-0.01114 0.010619 2.76146e-05) 11
(-0.0123942 0.00859505 2.68355e-05) 10
(-0.0143048 0.0059076 2.82615e-05) 9
(-0.0145213 0.00551546 4.29007e-05) 9
(0.00235943 0.0149059 3.07659e-05) 17
(0.000417669 0.0150308 0.000358083) 17
(0.00691107 0.0159557 2.85754e-05) 19
(0.00532857 0.0139527 2.49128e-05) 19
(0.00461139 0.0142749 5.86971e-06) 18
(0.00787904 0.0132649 4.57644e-06) 20
(0.0101632 0.0135686 6.80833e-05) 20
(0.00816067 0.0175813 0.000621553) 59
(0.00793991 0.0137894 3.95833e-05) 20
(0.0101911 0.013151 3.09456e-05) 21
(0.0016954 0.0145089 2.31297e-05) 17
(-0.00534842 0.013926 0.000120091) 14
(-0.00963386 0.0121145 9.03462e-07) 12
(-0.0061124 0.0133369 9.20663e-05) 14
(-0.00720234 0.0128841 6.55925e-05) 13
(-0.00745903 0.0126766 2.79227e-05) 13
(-0.0100332 0.0114863 2.57659e-05) 12
(-0.0115256 0.0105065 1.1352e-05) 11
(-0.0134777 0.00752499 2.47468e-05) 10
(-0.0122765 0.00852473 5.85953e-06) 10
)


// ************************************************************************* //
