/*--------------------------------*- C++ -*----------------------------------*\
| =========                 |                                                 |
| \\      /  F ield         | OpenFOAM: The Open Source CFD Toolbox           |
|  \\    /   O peration     | Version:  2112                                  |
|   \\  /    A nd           | Website:  www.openfoam.com                      |
|    \\/     M anipulation  |                                                 |
\*---------------------------------------------------------------------------*/
FoamFile
{
    version     2.0;
    format      ascii;
    arch        "LSB;label=32;scalar=64";
    class       vectorField;
    location    "1/lagrangian/kinematicCloud";
    object      U;
}
// * * * * * * * * * * * * * * * * * * * * * * * * * * * * * * * * * * * * * //


100
(
(-0.000439342 -0.0224997 -0.0130605)
(-0.00452726 -0.0222228 0.00296279)
(-0.0135684 -0.0205896 0.00179968)
(-0.00853817 -0.0157558 -0.013377)
(-0.00639503 -0.0167698 0.00978633)
(-0.0128388 -0.0118684 -0.0151036)
(-0.0119464 -0.0041114 -0.0182048)
(-0.00526852 -0.00120496 -0.0139804)
(-0.0101973 -0.00713773 0.00643263)
(-0.00792418 -0.00100759 -0.0187689)
(-0.000490906 -0.0206675 0.0105625)
(0.00761758 -0.0256164 -0.00115444)
(0.00648876 -0.0279388 -0.00243208)
(0.00775389 -0.0311985 -0.0153344)
(0.00944658 -0.0268046 0.0106573)
(0.0192891 -0.0234065 0.00977453)
(0.0151338 -0.0262512 -0.0236419)
(0.0197271 -0.0237908 -0.00581535)
(0.0249831 -0.0265513 -0.0337751)
(0.0258399 -0.0187387 -0.0115384)
(-0.0109306 -0.0136524 -0.0161937)
(-0.0121271 -0.0112483 -0.0172102)
(-0.0158722 -0.00915421 0.00519734)
(-0.0100386 -0.00798276 -0.00408554)
(-0.0156189 -0.00830737 0.00843526)
(-0.0155129 -0.0069119 -0.0167157)
(-0.0180772 -0.00601585 -0.0359068)
(-0.0159287 -0.00756814 -0.0184181)
(-0.0121554 0.000222241 -0.00910729)
(-0.0126433 0.000851064 -0.0193305)
(-0.010287 -0.0154209 -0.00289684)
(-0.00873618 -0.0184118 -0.0617873)
(-0.00481141 -0.0236809 0.00865754)
(-0.000687508 -0.0190676 -0.0060414)
(-0.00671562 -0.0195751 0.0132876)
(-0.00211626 -0.0247764 -0.0619744)
(0.000278494 -0.0174882 0.00442873)
(0.000623081 -0.0207933 0.0102059)
(0.00050615 -0.0212125 -0.0050445)
(0.00587892 -0.0203544 0.00903036)
(-0.0125257 -0.00929777 -0.0134057)
(-0.0123287 -0.00101302 0.0108837)
(-0.016468 -0.00421991 0.0311353)
(-0.0127854 -0.00257637 -0.00101865)
(-0.0160071 -0.00205418 -0.00829912)
(-0.0146013 0.000309256 0.0284129)
(-0.0140354 0.000619845 -0.0167628)
(-0.0143909 0.00355807 0.0196734)
(-0.00582291 0.00179901 -0.00191398)
(-0.0156168 0.00129483 0.00282943)
(-0.0147419 -0.00705278 0.0105817)
(-0.0158796 -0.00803003 0.00971611)
(-0.0121171 -0.0141258 0.0100959)
(-0.0137102 -0.00908896 -0.00882699)
(-0.0154624 -0.00790241 -0.00624909)
(-0.0125241 -0.0141429 -0.0112047)
(-0.0108725 -0.0127352 0.0114032)
(-0.00556802 -0.0190241 -0.0114681)
(-0.00688215 -0.0204419 -0.00380857)
(-0.00506542 -0.0163513 0.00029635)
(-0.017018 4.48993e-05 -0.00199156)
(-0.0088644 0.00293607 -0.0146154)
(-0.0146099 0.0028765 0.00958103)
(-0.0118802 0.00321944 0.00670514)
(-0.016422 0.00444847 0.00609641)
(-0.0152196 0.00279404 0.0130862)
(-0.0133269 0.00485033 0.00676209)
(-0.0140738 0.00392489 -0.0112508)
(0.00100412 0.00122442 -0.00317582)
(-0.00634381 0.00232198 -0.0146167)
(-0.0218734 -0.000324478 -0.0177195)
(-0.018816 -0.00154224 0.00392526)
(-0.0189808 -0.00116896 -0.0342351)
(-0.018393 -0.000327998 -0.00707511)
(-0.0160442 -0.00767106 0.000370237)
(-0.0179006 -0.0095073 -0.000862869)
(-0.0146402 -0.0110491 -0.00251503)
(-0.0130452 -0.0148316 -0.00815987)
(-0.0102212 -0.0162233 -0.0087173)
(-0.0103138 -0.0182786 -0.00854729)
(-0.0181336 0.00545836 -0.048929)
(-0.021859 0.00483541 -0.063714)
(-0.000133817 -0.000640271 -0.00236996)
(-0.0172089 0.00607016 -0.0110105)
(-0.014474 0.00390235 0.00854767)
(-0.0120645 0.00485923 -0.0168472)
(-0.00126916 0.00109648 -0.0128342)
(0.0010028 0.00109434 -0.0508728)
(-0.00951026 0.00340423 -0.0207175)
(-0.00341892 0.00180055 -0.00752045)
(-0.0238429 0.00522472 -0.0168843)
(-0.0248478 -0.00561211 0.0273548)
(-0.0169202 -0.00783934 -0.0166026)
(-0.0216988 -0.00771988 0.0102053)
(-0.0203188 -0.00862959 -0.039629)
(-0.0196053 -0.00922447 0.00309992)
(-0.0163292 -0.00990047 -0.00441902)
(-0.0142949 -0.0101662 -0.01416)
(-0.0111685 -0.0129573 -0.00112903)
(-0.0131434 -0.0147777 0.00849145)
)


// ************************************************************************* //
