/*--------------------------------*- C++ -*----------------------------------*\
| =========                 |                                                 |
| \\      /  F ield         | OpenFOAM: The Open Source CFD Toolbox           |
|  \\    /   O peration     | Version:  2112                                  |
|   \\  /    A nd           | Website:  www.openfoam.com                      |
|    \\/     M anipulation  |                                                 |
\*---------------------------------------------------------------------------*/
FoamFile
{
    version     2.0;
    format      ascii;
    arch        "LSB;label=32;scalar=64";
    class       vectorField;
    location    "1/lagrangian/kinematicCloud";
    object      UCorrect;
}
// * * * * * * * * * * * * * * * * * * * * * * * * * * * * * * * * * * * * * //


100
(
(0 0 0)
(0 0 0)
(0 0 0)
(0 0 0)
(0 0 0)
(-0.000203138 2.00573e-05 0.00044971)
(0 0 0)
(0 0 0)
(0 0 0)
(0 0 0)
(0 0 0)
(0 0 0)
(0 0 0)
(-4.09323e-06 -1.49645e-08 7.86566e-06)
(0 0 0)
(0 0 0)
(-5.43512e-06 3.28508e-05 4.61539e-05)
(0 0 0)
(0 0 0)
(-2.05579e-05 -2.44697e-05 5.31511e-05)
(0 0 0)
(-6.60234e-06 1.8689e-05 5.18063e-05)
(0 0 0)
(0 0 0)
(0 0 0)
(0 0 0)
(0.000171672 0.000333219 0.00051341)
(0 0 0)
(0 0 0)
(-2.4407e-05 5.89072e-05 0.000306842)
(0 0 0)
(-5.16638e-05 -6.07984e-05 0.000158224)
(0 0 0)
(0 0 0)
(0 0 0)
(-7.0852e-06 6.98248e-07 2.84982e-05)
(0 0 0)
(0 0 0)
(0 0 0)
(0 0 0)
(-6.57381e-05 0.000186082 0.000515824)
(0 0 0)
(0 0 0)
(0 0 0)
(0 0 0)
(0 0 0)
(0 0 0)
(0 0 0)
(0 0 0)
(0 0 0)
(0 0 0)
(0 0 0)
(0 0 0)
(0 0 0)
(0 0 0)
(0 0 0)
(0 0 0)
(0 0 0)
(0 0 0)
(0 0 0)
(0 0 0)
(8.50176e-06 0.000144314 0.00032819)
(0 0 0)
(0 0 0)
(0 0 0)
(0 0 0)
(0 0 0)
(5.58224e-06 9.47563e-05 0.000215488)
(0 0 0)
(0.000219551 -0.000444726 9.22696e-05)
(-3.08463e-05 7.44486e-05 0.000387796)
(0 0 0)
(-8.89872e-05 0.000129229 0.000329993)
(0 0 0)
(0 0 0)
(0 0 0)
(0 0 0)
(0 0 0)
(0 0 0)
(0 0 0)
(9.9538e-05 8.63223e-05 0.000277195)
(0.000177583 -1.36999e-06 6.59844e-05)
(0 0 0)
(1.51056e-05 -3.96023e-05 5.25874e-05)
(0 0 0)
(0.00022686 -0.000459531 9.53413e-05)
(2.1423e-05 -5.23169e-05 4.8782e-05)
(0.000175797 3.59806e-05 0.000208791)
(2.45646e-05 -4.97582e-05 1.03236e-05)
(1.37405e-05 -4.27577e-05 4.24824e-06)
(9.28012e-05 8.04799e-05 0.000258434)
(0 0 0)
(-0.000300344 0.000399539 0.00102152)
(0 0 0)
(0.000376852 0.000149017 0.000394058)
(0 0 0)
(0 0 0)
(-6.74825e-05 0.00019102 0.000529512)
(0 0 0)
(0 0 0)
)


// ************************************************************************* //
