/*--------------------------------*- C++ -*----------------------------------*\
| =========                 |                                                 |
| \\      /  F ield         | OpenFOAM: The Open Source CFD Toolbox           |
|  \\    /   O peration     | Version:  2112                                  |
|   \\  /    A nd           | Website:  www.openfoam.com                      |
|    \\/     M anipulation  |                                                 |
\*---------------------------------------------------------------------------*/
FoamFile
{
    version     2.0;
    format      ascii;
    arch        "LSB;label=32;scalar=64";
    class       volScalarField;
    location    "0.225";
    object      epsilon;
}
// * * * * * * * * * * * * * * * * * * * * * * * * * * * * * * * * * * * * * //

dimensions      [0 2 -3 0 0 0 0];

internalField   nonuniform List<scalar> 
167834
(
0.000114364
0.00152722
0.000465383
0.000298834
0.000323396
0.000377941
0.000549458
0.00110395
0.000540481
0.000363712
0.000291333
0.000257371
0.00023737
0.000240331
0.000273389
0.000269207
0.000302239
0.000348739
0.00041119
0.000418686
0.000348197
0.000308279
0.000279492
0.000257076
0.000237791
0.000227899
0.000214861
0.000268967
0.000277033
0.000294315
0.000324633
0.000353407
0.0003837
0.000391012
0.000359558
0.000326776
0.000298818
0.000274627
0.000253424
0.000238673
0.000230804
0.000265929
0.000281925
0.000301456
0.000318326
0.00033502
0.000351763
0.000368726
0.000369368
0.000352074
0.000331386
0.000311746
0.000291982
0.000272398
0.000255068
0.000242648
0.000230094
0.00027468
0.000294909
0.000317144
0.000322583
0.000317361
0.000317146
0.000326716
0.000333946
0.0003348
0.000331518
0.00032454
0.00031219
0.000295444
0.000277227
0.000260181
0.000244132
0.000239947
0.000279899
0.000306844
0.000325504
0.000319193
0.000297254
0.000282316
0.000288334
0.000303718
0.00031834
0.000330026
0.000338154
0.00033702
0.000325482
0.000306992
0.000285593
0.000264778
0.000262274
0.000300405
0.000289959
0.000316811
0.000333176
0.00032447
0.000295362
0.000266993
0.000262622
0.000276476
0.000297408
0.00032072
0.000343934
0.00035741
0.000354576
0.000338125
0.000313834
0.00028759
0.000271277
0.000287307
0.000293054
0.000320446
0.00033965
0.000337891
0.00031438
0.000279359
0.000252925
0.000248257
0.000270501
0.000304597
0.000337612
0.000362721
0.000370649
0.000360082
0.000336197
0.000306305
0.000280588
0.000284168
0.000289799
0.000317378
0.000340364
0.000347832
0.000334574
0.000303343
0.000267488
0.000239001
0.000255946
0.000290411
0.000322488
0.000351509
0.000368806
0.000367294
0.000348468
0.000318621
0.00029149
0.000272908
0.000282007
0.000306852
0.0003309
0.000345224
0.00034318
0.000322735
0.000293582
0.000271052
0.000269559
0.000283571
0.000302663
0.000329056
0.000353278
0.00036184
0.000350617
0.000323946
0.000295774
0.00026905
0.000290313
0.000311857
0.000328827
0.000336148
0.000330278
0.000314751
0.000299744
0.000289817
0.000284001
0.000284718
0.000302573
0.000332865
0.000350424
0.000345203
0.000321948
0.000328686
0.000254395
0.000273028
0.000290555
0.000307203
0.000319882
0.000325496
0.000323031
0.000314354
0.000301018
0.000284609
0.000273063
0.000284532
0.00031776
0.000338553
0.000334796
0.000313967
0.00031351
0.000252964
0.000261708
0.000276647
0.000291761
0.000305918
0.000316465
0.00032018
0.000314941
0.000300493
0.000280953
0.000268934
0.000283597
0.000311853
0.000326355
0.000318676
0.000299006
0.000255464
0.000269034
0.000282234
0.000295169
0.000305843
0.000310912
0.000307448
0.000295392
0.000280448
0.000275792
0.000289677
0.000306228
0.000308995
0.000297298
0.000304488
0.000248496
0.000260071
0.00027428
0.000284471
0.000293315
0.000298053
0.000296931
0.000290723
0.000283699
0.000282526
0.000288245
0.000291423
0.000286515
0.00027021
0.000263987
0.00027289
0.00027973
0.00028315
0.000282936
0.000280153
0.000276605
0.000273482
0.000272286
0.000266669
0.000271172
0.000274456
0.000278236
0.000270545
0.000265005
0.000263042
0.00025897
0.000273113
0.00025879
0.00101309
0.000514169
0.000342539
0.000291971
0.000498898
0.000274171
0.000355767
0.00111318
0.000529886
0.000251894
0.000204632
0.000195224
0.000193354
0.000227662
0.000260479
0.000201582
0.000220961
0.00029022
0.000620681
0.000515385
0.000273958
0.000214995
0.000206026
0.000201267
0.000197871
0.000194172
0.000274861
0.000197288
0.000200114
0.000210253
0.00022368
0.000253512
0.000320292
0.000267198
0.000216899
0.000208559
0.000205617
0.000204449
0.000202354
0.000200124
0.000191111
0.000252139
0.000226593
0.000200421
0.00020591
0.000214861
0.00021466
0.000218806
0.000232725
0.00021759
0.000208374
0.00020626
0.000204777
0.000203813
0.000203177
0.000201924
0.000200323
0.000192568
0.000324549
0.000197337
0.000207036
0.000211595
0.000212123
0.00021184
0.000211879
0.000212496
0.000209104
0.000206637
0.000205348
0.000204631
0.000204075
0.000203468
0.00020291
0.000201669
0.000198935
0.000191067
0.00020296
0.000203415
0.0002112
0.000211825
0.000212135
0.000212617
0.000212058
0.000210187
0.000207541
0.000205585
0.000204802
0.000205049
0.000205399
0.0002054
0.000204915
0.000204016
0.000201405
0.000194501
0.000358945
0.000194565
0.000203489
0.00021168
0.00021265
0.000212607
0.000212785
0.000211275
0.00020842
0.000205767
0.000204378
0.000204804
0.000206908
0.000209172
0.000210379
0.000210148
0.000208397
0.00020565
0.00019933
0.000192174
0.000297296
0.00019841
0.000205443
0.000212323
0.00021269
0.000211733
0.000211573
0.000209883
0.000207036
0.000205148
0.000204471
0.000205006
0.000206498
0.000209032
0.000211278
0.000212379
0.00021175
0.000208526
0.000202174
0.000190608
0.000257209
0.000200142
0.000206173
0.000212306
0.000212439
0.00021132
0.000210125
0.000208714
0.000206815
0.000207034
0.000207184
0.000206349
0.000206785
0.000208728
0.000210681
0.0002119
0.000211986
0.00021051
0.000203994
0.000196146
0.000253199
0.000199917
0.000205549
0.000211995
0.000212213
0.000211488
0.000209985
0.000208242
0.000206835
0.000207452
0.000206678
0.000207571
0.000207569
0.000209007
0.000210817
0.000211854
0.000212181
0.000211371
0.00020455
0.000198944
0.000255841
0.000198502
0.000204521
0.000211486
0.000212513
0.000211866
0.000210116
0.000207952
0.00020617
0.000205521
0.000206317
0.000206759
0.00020843
0.000210439
0.000211376
0.000212151
0.000212594
0.000211583
0.000204084
0.000199388
0.000194364
0.000202545
0.00020926
0.00021206
0.000212329
0.000210694
0.000208229
0.000205786
0.000204156
0.000204383
0.000206173
0.000209163
0.000211881
0.000212736
0.000212751
0.000212661
0.000210838
0.000202594
0.000192343
0.000193216
0.000200294
0.000204735
0.000206094
0.000206722
0.000206485
0.000205557
0.000204307
0.000203393
0.000204039
0.000206278
0.000209545
0.000212421
0.000213382
0.000213054
0.000212056
0.000207806
0.000200637
0.000268697
0.00023504
0.00019801
0.000201822
0.000202921
0.000203281
0.000203372
0.000203175
0.00020287
0.000202965
0.000204084
0.000206243
0.000209117
0.000211612
0.000212476
0.00021211
0.000210422
0.00020484
0.000204164
0.000199011
0.000199874
0.000201648
0.000202234
0.000202424
0.00020249
0.000202525
0.000202935
0.000203997
0.000205765
0.000207959
0.000209747
0.000210515
0.000209828
0.000206026
0.000201388
0.000323541
0.000328538
0.000193471
0.000199846
0.000201429
0.000202022
0.000202222
0.000202403
0.000202825
0.000203697
0.000205008
0.000206502
0.000207626
0.000207609
0.000205436
0.000200252
0.000209967
0.000298221
0.000195326
0.00019885
0.000200823
0.000201789
0.000202132
0.000202514
0.000203116
0.000203877
0.000204545
0.000204302
0.000203763
0.000199289
0.000200335
0.000205185
0.000195549
0.000198718
0.000200358
0.00020105
0.000201447
0.000201573
0.000200925
0.000198474
0.000194884
0.000276149
0.000368356
0.000200673
0.000190357
0.000194796
0.000196257
0.000193306
0.000181988
0.000218247
0.00103461
0.000418942
0.000326851
0.000266612
0.000477061
0.000266444
0.000342725
0.0005199
0.000419516
0.000228703
0.000206764
0.000204538
0.000200384
0.000226295
0.000277388
0.000205542
0.000220475
0.000297086
0.000320933
0.000304064
0.000312729
0.000289265
0.000287271
0.000208464
0.000201703
0.000197942
0.000311146
0.000214316
0.00021419
0.000237609
0.000213418
0.000406228
0.000535507
0.000486854
0.000437561
0.000390937
0.000346796
0.00031274
0.00028237
0.000203426
0.00019529
0.00027367
0.000260949
0.000214676
0.000247495
0.000206304
0.000224107
0.000472651
0.000563074
0.000489529
0.000428784
0.000383595
0.000347848
0.000320225
0.000302396
0.00028817
0.000203717
0.000196771
0.000433984
0.000207125
0.000237115
0.000204366
0.000206608
0.000225433
0.000466572
0.00051012
0.000436195
0.000376879
0.000337028
0.000311859
0.000297411
0.000288246
0.000281491
0.000284044
0.000202635
0.000195638
0.000219037
0.000217209
0.00020481
0.000205038
0.000207066
0.000223982
0.000443477
0.000456135
0.000383722
0.00032974
0.000296291
0.000277827
0.000269357
0.000267057
0.000268731
0.000273957
0.000272882
0.000199024
0.000386516
0.000209638
0.000237887
0.000206138
0.000206516
0.000208099
0.000221509
0.000407016
0.000391955
0.000330093
0.000287044
0.000263228
0.000251539
0.000247151
0.000247955
0.000253263
0.000262456
0.000288194
0.000209655
0.000244488
0.000477057
0.000209089
0.000207342
0.000208452
0.000208941
0.000210075
0.000218535
0.000351824
0.000327321
0.00028997
0.000265907
0.000242158
0.000233703
0.000232153
0.000233388
0.000238679
0.00024908
0.000278305
0.000224181
0.000204086
0.000291008
0.00021094
0.000209476
0.000211795
0.000212667
0.000213597
0.000216739
0.000276438
0.000271104
0.00053679
0.000552376
0.000286601
0.00022859
0.000224066
0.000223576
0.000226779
0.000235229
0.000254219
0.000298309
0.000201642
0.000283009
0.000209269
0.000213909
0.000216456
0.000218058
0.000219181
0.000220225
0.00022449
0.000241762
0.000502851
0.000449056
0.000317916
0.00023803
0.000222769
0.000217398
0.000218138
0.000223519
0.000232349
0.000239149
0.000204934
0.000286292
0.000205924
0.000218209
0.000222705
0.000225164
0.000226918
0.00022749
0.000228505
0.000239264
0.00029633
0.000340014
0.000290839
0.000333228
0.000241746
0.000214251
0.000212658
0.000215222
0.000218899
0.000219423
0.000206675
0.000203424
0.000226085
0.000230482
0.000234014
0.000237422
0.000239208
0.00024083
0.000245362
0.000258352
0.000288176
0.000331713
0.000409179
0.000264055
0.000213267
0.000209253
0.000210064
0.000211811
0.000229654
0.000242581
0.000200395
0.000212352
0.000239912
0.000244293
0.00025083
0.000256138
0.000261554
0.000271921
0.000293759
0.000333387
0.000392075
0.00047924
0.000276121
0.000213044
0.000207151
0.000207223
0.000208993
0.000216871
0.000327139
0.000248504
0.000201285
0.000243727
0.000254962
0.000265613
0.000277289
0.000289197
0.000306116
0.000335295
0.000382959
0.000448024
0.00053353
0.00027902
0.000212845
0.000206028
0.000206113
0.000206956
0.000213537
0.000204093
0.000202367
0.000265445
0.000277718
0.000296092
0.000319298
0.000346524
0.000382385
0.000433704
0.000500612
0.000570641
0.000276637
0.000212457
0.000205578
0.000205269
0.000212405
0.000389715
0.000376219
0.000197101
0.000202074
0.000283456
0.000298857
0.000331656
0.000374047
0.000421533
0.00047415
0.000533851
0.000562584
0.000263834
0.000210959
0.000205456
0.000216019
0.000232462
0.000321519
0.000198549
0.000201213
0.000268414
0.000301728
0.000333255
0.00036298
0.00038139
0.000404445
0.000371252
0.000233064
0.000212204
0.000209244
0.000223007
0.0002094
0.000198897
0.000202665
0.000204835
0.000272189
0.000210196
0.000286724
0.000215986
0.000208309
0.000205336
0.000338839
0.00038514
0.000241541
0.000203262
0.000199886
0.000202572
0.000201498
0.0002298
0.000271212
0.000659672
0.000340292
0.000294496
0.000255653
0.000540282
0.000253103
0.000305139
0.000403723
0.000310681
0.000217133
0.000205968
0.000204893
0.000199413
0.000229529
0.000290587
0.000212614
0.000265355
0.000895605
0.000815457
0.000712778
0.000624931
0.000560842
0.000509878
0.000212425
0.000202592
0.000197888
0.000309637
0.000223022
0.000236841
0.000332438
0.000344724
0.00771076
0.00388627
0.00272919
0.00154515
0.000930546
0.000646492
0.000204072
0.000196122
0.000277915
0.000285137
0.000240148
0.000206438
0.000214668
0.00031923
0.0200141
0.00634451
0.00426315
0.00217504
0.00129206
0.000799905
0.000601338
0.00020441
0.000197409
0.000521026
0.000218122
0.000363427
0.000207895
0.000215158
0.000305644
0.0181582
0.00529219
0.00341215
0.00179521
0.00116958
0.000818977
0.000610119
0.00048134
0.000204316
0.000196621
0.000226099
0.000298881
0.000211385
0.000212167
0.000217468
0.000292562
0.0143306
0.0039453
0.0025075
0.00132555
0.00089202
0.000689341
0.000559529
0.000456927
0.000390126
0.000206057
0.000353343
0.000219645
0.000217584
0.000219544
0.000221232
0.000224752
0.000285618
0.00997412
0.00255242
0.00165197
0.000921997
0.000648
0.00053914
0.000477335
0.000416031
0.000367838
0.000328923
0.000257842
0.000570288
0.0002267
0.000224984
0.000232935
0.000236545
0.000239565
0.000286111
0.00531438
0.00124032
0.000877756
0.000596635
0.000466521
0.000418331
0.000394787
0.000363723
0.000333063
0.000351674
0.000208975
0.000306286
0.000235821
0.00023697
0.000251528
0.000259553
0.000264363
0.000288493
0.000528974
0.000384483
0.000352513
0.000335535
0.000328846
0.000314255
0.000294386
0.000358751
0.000207522
0.00029284
0.000236589
0.000252771
0.000276171
0.00029164
0.000301997
0.000311776
0.000340446
0.000350077
0.000563828
0.00055414
0.000347728
0.000283946
0.000281649
0.000274489
0.000262882
0.000344989
0.000209609
0.00029722
0.000230932
0.000273918
0.000307896
0.000334291
0.000357059
0.000381793
0.000430489
0.00054997
0.000685319
0.00149458
0.000655109
0.000254456
0.000249298
0.000246187
0.000240936
0.000327911
0.000210214
0.000221442
0.000298462
0.00034527
0.000387464
0.000434556
0.000496288
0.000625904
0.000982773
0.00150615
0.0028849
0.000716532
0.000239472
0.000228696
0.00022751
0.000225973
0.000299212
0.000269596
0.00020497
0.000362915
0.000382639
0.00044527
0.000532556
0.000656396
0.000894088
0.00149142
0.00259286
0.0047739
0.000755408
0.000235458
0.000216943
0.000216103
0.000216217
0.000250216
0.000350729
0.000247977
0.000206049
0.00041802
0.000493009
0.000630579
0.000847894
0.00122295
0.00205697
0.00369912
0.00657892
0.00078602
0.000236507
0.000211041
0.00021005
0.000342609
0.000217927
0.000205013
0.000203461
0.000521428
0.000679099
0.00098774
0.00156202
0.00268097
0.00481632
0.00820357
0.000837485
0.000241464
0.000208834
0.000207691
0.000225852
0.000445454
0.000377507
0.000197421
0.000203076
0.000632055
0.000867653
0.00152106
0.00290011
0.00505829
0.0077319
0.00100403
0.000240155
0.000209863
0.000242151
0.000245036
0.000324959
0.000198956
0.000202029
0.000570039
0.000689215
0.00105993
0.00114639
0.00129112
0.00143172
0.00148119
0.000838063
0.00030809
0.000218977
0.000240688
0.000209961
0.000199998
0.000207141
0.000212947
0.00022017
0.000228318
0.00023715
0.000238814
0.000223586
0.000212735
0.000420934
0.000394506
0.000262058
0.000210824
0.000205429
0.000209343
0.000210591
0.000273098
0.000335683
0.00043959
0.000283225
0.000270665
0.000249574
0.000454761
0.000221622
0.00022554
0.000294508
0.000224427
0.000210536
0.000205128
0.000204456
0.000199032
0.000229956
0.000274011
0.000210144
0.00027637
0.000235002
0.000259912
0.000420022
0.000495661
0.000469764
0.000424232
0.000212071
0.000203341
0.000197676
0.000301975
0.000213243
0.000237499
0.000362501
0.00020689
0.000258127
0.000383528
0.00391961
0.00192529
0.00251493
0.00184422
0.00103988
0.000654195
0.000204426
0.000196296
0.000271769
0.000265357
0.000236817
0.000205549
0.000205366
0.000207468
0.00029849
0.000623855
0.00540966
0.00250391
0.00329231
0.00235633
0.00151496
0.000917714
0.000642735
0.000203958
0.000197233
0.000456229
0.000211602
0.000366879
0.000207562
0.000207679
0.000209243
0.0002985
0.000603717
0.00427517
0.00208122
0.00284451
0.00208534
0.00141847
0.000984941
0.000692442
0.000512825
0.000202114
0.000195321
0.000213215
0.000279507
0.000211797
0.000212287
0.000213104
0.000214332
0.000292971
0.000534867
0.0029
0.00156721
0.00224133
0.00163953
0.00112872
0.000838983
0.000645005
0.000487613
0.000414309
0.000199279
0.000306897
0.000211933
0.0002182
0.000220116
0.000222805
0.000224822
0.000226333
0.000288902
0.000446642
0.00162108
0.00108062
0.0016814
0.00123444
0.000850421
0.00066153
0.000548725
0.000443458
0.000372152
0.00020568
0.000242804
0.000474286
0.000213356
0.000227062
0.000235344
0.00024218
0.000247482
0.000251324
0.000298315
0.000370219
0.000685226
0.000747664
0.00127382
0.000906918
0.000626621
0.000512635
0.000449673
0.000382154
0.000327714
0.000213852
0.000200633
0.000278978
0.000211548
0.000241975
0.000257857
0.000273652
0.000285847
0.000297019
0.000337164
0.000392291
0.00121355
0.000637713
0.000456369
0.00040057
0.000366818
0.000323658
0.000287677
0.000225705
0.000200126
0.000269674
0.000206825
0.000263721
0.000290037
0.000319135
0.000342117
0.000369183
0.000429811
0.000627166
0.00090776
0.000415799
0.000345654
0.000321187
0.000302714
0.000278147
0.000257879
0.000251148
0.000202087
0.000267325
0.000202775
0.00029453
0.000332943
0.000378358
0.000420203
0.000479867
0.000620938
0.00114014
0.00155124
0.00217767
0.000416613
0.000333581
0.000277881
0.000266711
0.00025821
0.000246927
0.000237475
0.000271742
0.000201897
0.000203501
0.000334196
0.000383223
0.000450599
0.00052518
0.000635705
0.000864271
0.00145413
0.00123254
0.000584389
0.000562082
0.000325036
0.000244488
0.000234668
0.000231215
0.000226966
0.0002237
0.000271484
0.000256499
0.000200176
0.000205133
0.000430951
0.000526289
0.000654563
0.000836999
0.0011682
0.00187663
0.00174096
0.000924121
0.000828867
0.000358187
0.000229548
0.000218445
0.000216576
0.000215297
0.000215321
0.000233555
0.000313297
0.000240656
0.00020158
0.000472626
0.000578552
0.000780442
0.00106583
0.00152667
0.00238366
0.00233068
0.00130844
0.00107474
0.00039241
0.000222059
0.000210281
0.000209505
0.000209479
0.000325096
0.000208886
0.000204007
0.000202443
0.000589167
0.000821392
0.00121906
0.00184982
0.00288689
0.0029225
0.00169627
0.00127914
0.000406415
0.000219302
0.000206809
0.00020653
0.000207177
0.000221054
0.000406506
0.000360333
0.000197309
0.000203299
0.000693244
0.00101136
0.00176899
0.00297164
0.00295456
0.00182022
0.00126771
0.000363701
0.000220732
0.000205456
0.000205404
0.000245698
0.000231633
0.000317581
0.000198944
0.000202305
0.000506153
0.000568626
0.000859099
0.00105872
0.00127053
0.000551164
0.000261973
0.000214848
0.00033867
0.000221397
0.000232951
0.000208749
0.000200309
0.000206957
0.000212289
0.000219584
0.000229654
0.000241446
0.000248403
0.000227577
0.000211794
0.000418533
0.00038973
0.000269322
0.000211913
0.000206715
0.000209564
0.000210368
0.000276665
0.000339978
0.000368847
0.000259507
0.00025275
0.000239509
0.000367892
0.00020606
0.000203589
0.00020647
0.000203206
0.000202555
0.000200776
0.000202418
0.000198004
0.000227141
0.000244842
0.000200275
0.000209841
0.000204264
0.000205053
0.000206674
0.000208774
0.00021029
0.000211273
0.000205365
0.00020207
0.000197028
0.000293835
0.00020156
0.000205035
0.000215247
0.000203555
0.000205106
0.000209538
0.00024712
0.000259195
0.000255213
0.000251119
0.000234382
0.000223846
0.00020316
0.000196121
0.000268113
0.000239238
0.000204634
0.000203286
0.000203413
0.000203798
0.000205992
0.000214292
0.000301084
0.00032516
0.000298918
0.000289016
0.000282708
0.000248021
0.000231138
0.000203099
0.000196862
0.000357278
0.000200319
0.000211283
0.000203572
0.000203654
0.000204133
0.000206424
0.000215453
0.00029252
0.000311894
0.000287882
0.000283837
0.000297606
0.000273702
0.00024384
0.00022817
0.000201589
0.00019506
0.000201881
0.000206489
0.000204019
0.000204119
0.000204329
0.000204781
0.000206845
0.000214192
0.000265517
0.000276796
0.000261785
0.000263411
0.000283779
0.000277087
0.000249343
0.000229609
0.000222729
0.000198353
0.000299245
0.000202823
0.000204694
0.00020499
0.000205376
0.000205783
0.000206226
0.000208157
0.000214558
0.000242488
0.000245523
0.000238645
0.000243298
0.000261962
0.00026405
0.000245106
0.000227963
0.000219723
0.000202322
0.000238005
0.000367955
0.000201424
0.000205747
0.000206747
0.000207802
0.000208723
0.00020934
0.000212047
0.000229234
0.000305477
0.000313667
0.000257434
0.000235424
0.000242702
0.000245224
0.000233829
0.000222428
0.000215935
0.000202869
0.000197783
0.000250993
0.000201163
0.000207451
0.000209472
0.000212092
0.000214591
0.000215872
0.000220657
0.000287651
0.000630354
0.000259945
0.000230317
0.000228496
0.000222516
0.000216287
0.000212179
0.000203289
0.000197718
0.000247548
0.00020093
0.000209992
0.000213538
0.000219166
0.000225601
0.00022767
0.00023336
0.00036413
0.00090682
0.000245274
0.00021961
0.000216891
0.000214451
0.000211415
0.000209226
0.000203991
0.000198939
0.000244384
0.00019978
0.00021352
0.000219069
0.000229519
0.000242196
0.000244071
0.000240051
0.000299117
0.000725227
0.000907161
0.000377897
0.000229864
0.000212408
0.000210452
0.000209428
0.000208089
0.000207143
0.000204702
0.000197172
0.000201975
0.000218046
0.000225103
0.00024079
0.000260959
0.000264526
0.000247418
0.000232611
0.000237939
0.000247744
0.000247408
0.000268224
0.000208624
0.000207105
0.000206527
0.000205971
0.000205761
0.000205482
0.000240739
0.000198782
0.000202617
0.000228905
0.000246503
0.000274441
0.000285904
0.000266733
0.000247004
0.000252574
0.000260528
0.000226761
0.00021959
0.00020628
0.000205276
0.000204915
0.000204752
0.000204994
0.000203739
0.000268334
0.00023693
0.000201057
0.00023022
0.000242953
0.000273953
0.000299389
0.000288701
0.000269312
0.000278045
0.000290154
0.000260089
0.000209585
0.000205308
0.000204321
0.000204115
0.000204222
0.000209289
0.000201199
0.000202137
0.000201998
0.000234441
0.000256028
0.000288863
0.000300654
0.000288476
0.00031037
0.00032621
0.000236104
0.000209183
0.000204852
0.000203864
0.000203807
0.000203882
0.000202794
0.000338944
0.000340284
0.000196867
0.00020239
0.000232136
0.000246974
0.000275551
0.000279334
0.000298102
0.000308232
0.000228269
0.000207852
0.000204485
0.000203618
0.000203575
0.000205431
0.000213917
0.000302781
0.000198244
0.000201559
0.000217689
0.000218359
0.000225194
0.00022396
0.000220227
0.000210007
0.000205493
0.000204045
0.00021527
0.000203422
0.000215377
0.00020458
0.000199369
0.000202952
0.000203763
0.000204741
0.000206076
0.000207503
0.000208557
0.000205954
0.000203657
0.000352203
0.000356132
0.000259297
0.000206385
0.000203106
0.000204701
0.000203847
0.000257865
0.000294689
0.000346773
0.000252512
0.000247346
0.000240332
0.000328072
0.000201492
0.000201787
0.000200345
0.000200569
0.000200681
0.000199601
0.000201782
0.000197522
0.000227895
0.0002303
0.000198063
0.000203256
0.00020302
0.000203086
0.000203129
0.000203173
0.000203228
0.000203293
0.000203899
0.00020159
0.000196761
0.000296851
0.000197791
0.000201776
0.000203936
0.000203029
0.00020319
0.000203491
0.000204
0.000204528
0.000204879
0.000204871
0.000204352
0.000204014
0.000202741
0.000196117
0.000271496
0.000227912
0.000201665
0.00020289
0.000203021
0.000203049
0.000203274
0.000203698
0.000204698
0.000205743
0.000206031
0.000206126
0.000205699
0.000204889
0.000204452
0.000202787
0.000196749
0.000309674
0.000198401
0.000203194
0.000202953
0.000202972
0.000203088
0.000203344
0.000203785
0.000204875
0.000205953
0.000206127
0.000206296
0.000206331
0.000205633
0.000204896
0.000204524
0.000201459
0.000195468
0.000199099
0.000202407
0.00020296
0.000202974
0.000203029
0.000203167
0.000203438
0.00020401
0.000205126
0.000205677
0.000205655
0.000205787
0.000206046
0.000205756
0.000205032
0.000204567
0.000204329
0.000198132
0.000313131
0.000201511
0.000202919
0.000203045
0.000203066
0.000203155
0.000203314
0.000203792
0.000206421
0.000212285
0.000209338
0.00020653
0.000205463
0.000205424
0.000205352
0.000204844
0.000204399
0.000204188
0.000201903
0.000241222
0.000327083
0.00020001
0.000203024
0.000203147
0.000203234
0.000203351
0.000203602
0.000205204
0.000221935
0.00029953
0.000298279
0.000240787
0.000212114
0.000205712
0.000204841
0.000204473
0.000204152
0.000204007
0.000202106
0.000197921
0.000245858
0.00019998
0.000203151
0.000203328
0.000203474
0.000203644
0.000204158
0.000209116
0.000277013
0.000588779
0.000242571
0.000207815
0.000204487
0.000204093
0.000203878
0.00020381
0.000202175
0.000197339
0.000246644
0.000200072
0.00020333
0.000203563
0.000203798
0.000204088
0.000205013
0.000215381
0.000345059
0.000888837
0.00023284
0.000206402
0.000204049
0.000203759
0.000203628
0.000203621
0.000202269
0.000198252
0.000246574
0.000199185
0.000203553
0.00020384
0.000204204
0.000204668
0.000205385
0.000212813
0.000280823
0.000675038
0.000866259
0.000402453
0.000296621
0.000204915
0.000203724
0.000203504
0.000203426
0.000203462
0.000202238
0.000195928
0.000201654
0.00020382
0.000204115
0.000204614
0.000205278
0.000205449
0.000205571
0.000208414
0.000217109
0.00023036
0.000243784
0.000266759
0.000204108
0.000203508
0.000203343
0.000203284
0.000203387
0.000202506
0.000234797
0.000198287
0.000202283
0.000204341
0.00020484
0.000205712
0.000206063
0.000205592
0.000205478
0.000206586
0.000209
0.000209515
0.00020843
0.000203587
0.000203332
0.000203225
0.000203234
0.000203423
0.000201551
0.000248652
0.000235221
0.000200903
0.000204303
0.000204752
0.000205659
0.000206399
0.000206267
0.000206039
0.000206765
0.000218118
0.0002277
0.00020394
0.000203396
0.000203216
0.000203181
0.000203315
0.000202906
0.000198954
0.000200477
0.000201886
0.000204483
0.000205074
0.000205936
0.00020642
0.000206335
0.000206342
0.000206033
0.000205114
0.000203637
0.000203297
0.000203161
0.000203222
0.000203224
0.00020017
0.000299265
0.000325933
0.000196457
0.000202221
0.000204316
0.000204755
0.000205467
0.000205728
0.000205561
0.000204981
0.000204012
0.000203498
0.00020324
0.000203145
0.000203141
0.00020164
0.00020392
0.000290023
0.000197455
0.000201356
0.000203766
0.000203802
0.000204134
0.000203978
0.000203749
0.000203503
0.000203331
0.000203175
0.000203301
0.000200117
0.000204117
0.000199908
0.000198761
0.000202131
0.000202287
0.000202423
0.000202582
0.000202631
0.000202951
0.000201927
0.000199432
0.000302554
0.000322096
0.000245165
0.000200242
0.00019913
0.00020028
0.000198134
0.000240865
0.000256809
0.000341075
0.0002506
0.000247304
0.000244045
0.00031958
0.0002004
0.000201434
0.000199745
0.000199949
0.000200148
0.000199225
0.000201612
0.000197363
0.000229599
0.000232181
0.000197633
0.000202559
0.000202814
0.000202822
0.000202798
0.000202771
0.000202756
0.000202756
0.000203447
0.00020138
0.000196886
0.000303233
0.000198159
0.000201204
0.000203097
0.000202889
0.000202894
0.000202918
0.000202968
0.000203026
0.000203073
0.000203062
0.000202997
0.000202955
0.000202528
0.00019603
0.000275727
0.000228962
0.000201162
0.000202792
0.000202902
0.000202841
0.00020286
0.00020292
0.00020301
0.00020311
0.000203194
0.000203231
0.000203177
0.000203151
0.000203129
0.000202715
0.000196688
0.00030008
0.000197855
0.000202638
0.000202827
0.000202808
0.000202822
0.000202869
0.000202953
0.000203059
0.000203143
0.00020322
0.000203276
0.00020327
0.000203202
0.000203172
0.000203244
0.000201412
0.000195898
0.000198892
0.000201994
0.000202808
0.000202802
0.000202807
0.000202842
0.000202923
0.000203219
0.000203665
0.000203464
0.000203306
0.000203273
0.000203268
0.000203223
0.00020317
0.000203249
0.000203244
0.000198078
0.000322197
0.000201246
0.000202707
0.000202831
0.000202811
0.000202838
0.000202897
0.000203195
0.000205689
0.000211906
0.000208484
0.000205105
0.000203671
0.000203292
0.000203202
0.000203147
0.000203151
0.00020322
0.000201812
0.000243189
0.000326173
0.000199592
0.000202753
0.000202833
0.000202849
0.000202887
0.000203035
0.000204393
0.000220973
0.000302486
0.000299274
0.000239604
0.000210678
0.000204162
0.000203239
0.000203115
0.000203098
0.00020319
0.000201952
0.000198277
0.000250677
0.000199642
0.000202791
0.00020288
0.000202899
0.000202954
0.000203351
0.00020787
0.000274125
0.000574138
0.000238965
0.000206437
0.000203354
0.000203075
0.000203049
0.000203151
0.000201975
0.00019734
0.000250689
0.000199803
0.000202846
0.000202934
0.000202955
0.00020304
0.000203856
0.000213667
0.000337517
0.000889536
0.000230237
0.000205346
0.0002037
0.000203069
0.000203
0.0002031
0.000201993
0.000198235
0.000250509
0.000198968
0.000202905
0.000202988
0.000203012
0.000203101
0.000203783
0.000211311
0.000277221
0.000661454
0.000855572
0.000429559
0.000281259
0.00020433
0.000205639
0.00020307
0.000202956
0.000203043
0.000201889
0.00019582
0.000201531
0.000202976
0.000203036
0.00020306
0.000203124
0.000203236
0.000203931
0.000207317
0.000216902
0.000231269
0.000244248
0.000230035
0.000203502
0.000203122
0.000202937
0.000202925
0.000203029
0.000202092
0.000235114
0.000197926
0.000202249
0.000203116
0.000203092
0.000203159
0.000203204
0.000203241
0.000203534
0.000206171
0.000220622
0.000223143
0.000205196
0.000203034
0.000202939
0.000202913
0.000202948
0.000203088
0.000201122
0.000245455
0.000234425
0.000200854
0.000203006
0.000203099
0.000203162
0.000203234
0.000203255
0.000203262
0.00020447
0.000222014
0.00022166
0.000203805
0.000202934
0.000202908
0.000202938
0.000203068
0.000202287
0.000198294
0.000199368
0.000201865
0.000203068
0.000203104
0.000203188
0.000203257
0.000203259
0.000203258
0.00020361
0.000203915
0.000203049
0.000202911
0.000202921
0.00020303
0.000203019
0.000199438
0.000283796
0.000317547
0.000196119
0.000202171
0.000202982
0.000203078
0.000203136
0.000203182
0.000203172
0.000203104
0.00020302
0.000202951
0.000202944
0.000202977
0.000202989
0.000200932
0.00019977
0.000280892
0.000196783
0.000201271
0.000202814
0.000202861
0.00020296
0.000202979
0.000202978
0.000202966
0.000202991
0.000202958
0.000202342
0.000199178
0.000198849
0.000196375
0.000198228
0.000201856
0.000201973
0.000202046
0.000202105
0.000202035
0.000202229
0.000201119
0.000197439
0.000276392
0.000298003
0.000233379
0.000195567
0.000196013
0.000197128
0.000194399
0.000230216
0.000235018
0.000339345
0.0002505
0.000248664
0.000247705
0.000320169
0.00020035
0.000201358
0.000199519
0.000199705
0.000199899
0.000199038
0.000201589
0.000197318
0.000230903
0.000234716
0.000197475
0.000202364
0.000202763
0.000202761
0.000202732
0.000202699
0.000202679
0.000202679
0.000203244
0.000201298
0.000197048
0.000309239
0.000198862
0.000201058