/*--------------------------------*- C++ -*----------------------------------*\
| =========                 |                                                 |
| \\      /  F ield         | OpenFOAM: The Open Source CFD Toolbox           |
|  \\    /   O peration     | Version:  2112                                  |
|   \\  /    A nd           | Website:  www.openfoam.com                      |
|    \\/     M anipulation  |                                                 |
\*---------------------------------------------------------------------------*/
FoamFile
{
    version     2.0;
    format      ascii;
    arch        "LSB;label=32;scalar=64";
    class       volScalarField;
    location    "0.225";
    object      k;
}
// * * * * * * * * * * * * * * * * * * * * * * * * * * * * * * * * * * * * * //

dimensions      [0 2 -2 0 0 0 0];

internalField   nonuniform List<scalar> 
167834
(
1.68235e-05
0.000122574
5.50728e-05
4.08041e-05
4.02483e-05
5.20635e-05
7.10112e-05
0.00011558
7.21195e-05
5.55039e-05
4.76285e-05
4.3124e-05
4.03432e-05
3.59172e-05
3.91991e-05
4.44365e-05
4.9165e-05
5.44652e-05
6.08971e-05
6.17869e-05
5.4623e-05
5.03043e-05
4.7024e-05
4.42859e-05
4.14902e-05
3.74291e-05
3.05893e-05
3.87818e-05
4.57976e-05
4.85815e-05
5.21336e-05
5.52423e-05
5.83792e-05
5.91204e-05
5.58779e-05
5.24059e-05
4.93505e-05
4.66142e-05
4.40804e-05
4.19322e-05
3.96159e-05
3.54057e-05
4.57973e-05
4.93462e-05
5.14616e-05
5.33099e-05
5.51026e-05
5.68752e-05
5.69358e-05
5.51264e-05
5.2931e-05
5.08095e-05
4.86292e-05
4.641e-05
4.43283e-05
4.23007e-05
3.73861e-05
4.22039e-05
4.83267e-05
5.12845e-05
5.19427e-05
5.14093e-05
5.14184e-05
5.24684e-05
5.32386e-05
5.33186e-05
5.29657e-05
5.2225e-05
5.08978e-05
4.90619e-05
4.70016e-05
4.48745e-05
4.18817e-05
3.31207e-05
4.54014e-05
4.99941e-05
5.22228e-05
5.15505e-05
4.9169e-05
4.75453e-05
4.82503e-05
4.99595e-05
5.15475e-05
5.28102e-05
5.36947e-05
5.35958e-05
5.23802e-05
5.03753e-05
4.79332e-05
4.49537e-05
3.80217e-05
3.85384e-05
4.71362e-05
5.12025e-05
5.30469e-05
5.2086e-05
4.88968e-05
4.5748e-05
4.52958e-05
4.68941e-05
4.92353e-05
5.179e-05
5.42853e-05
5.57186e-05
5.54418e-05
5.37193e-05
5.10773e-05
4.78081e-05
4.21351e-05
4.00597e-05
4.805e-05
5.1667e-05
5.37501e-05
5.35254e-05
5.09708e-05
4.71002e-05
4.41193e-05
4.36048e-05
4.61814e-05
5.0001e-05
5.35707e-05
5.62135e-05
5.7049e-05
5.59754e-05
5.34619e-05
5.00285e-05
4.55727e-05
3.98114e-05
4.77512e-05
5.13637e-05
5.3858e-05
5.4618e-05
5.31896e-05
4.98012e-05
4.57791e-05
4.24573e-05
4.44671e-05
4.83957e-05
5.19052e-05
5.49841e-05
5.67935e-05
5.66656e-05
5.47197e-05
5.13618e-05
4.67714e-05
3.85558e-05
4.6681e-05
5.02093e-05
5.28877e-05
5.43968e-05
5.41595e-05
5.19588e-05
4.87488e-05
4.61929e-05
4.6024e-05
4.76134e-05
4.97154e-05
5.25574e-05
5.51299e-05
5.60568e-05
5.49033e-05
5.18167e-05
4.68856e-05
4.44967e-05
4.83092e-05
5.08448e-05
5.26852e-05
5.34491e-05
5.2799e-05
5.10985e-05
4.94359e-05
4.83338e-05
4.76769e-05
4.77231e-05
4.96586e-05
5.29514e-05
5.48435e-05
5.42868e-05
5.1294e-05
4.4766e-05
4.23055e-05
4.61577e-05
4.84506e-05
5.03247e-05
5.16966e-05
5.22841e-05
5.2001e-05
5.1053e-05
4.95967e-05
4.77688e-05
4.64363e-05
4.76845e-05
5.13426e-05
5.35855e-05
5.30975e-05
4.99705e-05
4.21958e-05
3.72029e-05
4.42391e-05
4.67374e-05
4.85606e-05
5.01396e-05
5.12887e-05
5.16888e-05
5.11242e-05
4.95516e-05
4.73753e-05
4.59929e-05
4.76171e-05
5.07237e-05
5.22558e-05
5.1077e-05
4.71292e-05
4.0382e-05
4.53987e-05
4.73812e-05
4.89168e-05
5.01144e-05
5.06775e-05
5.03068e-05
4.89888e-05
4.73197e-05
4.67753e-05
4.83019e-05
5.00804e-05
5.01603e-05
4.77499e-05
3.95131e-05
3.36913e-05
4.28894e-05
4.58633e-05
4.75361e-05
4.86631e-05
4.9232e-05
4.91287e-05
4.84465e-05
4.7652e-05
4.74837e-05
4.80376e-05
4.81127e-05
4.65817e-05
4.12937e-05
4.09328e-05
4.50254e-05
4.65109e-05
4.7209e-05
4.73686e-05
4.70796e-05
4.65931e-05
4.59747e-05
4.54159e-05
4.36814e-05
3.65974e-05
3.60981e-05
3.94089e-05
4.1955e-05
4.37954e-05
4.36268e-05
4.2878e-05
3.95561e-05
3.71302e-05
8.14275e-05
6.73351e-05
5.24469e-05
4.24051e-05
4.17805e-05
5.15222e-05
7.18629e-05
7.27584e-05
8.48685e-05
7.03391e-05
6.31719e-05
5.89582e-05
5.35734e-05
4.13379e-05
4.85105e-05
5.88688e-05
6.82305e-05
7.80605e-05
9.2951e-05
9.52209e-05
7.64456e-05
6.73158e-05
6.49203e-05
6.32709e-05
6.20225e-05
5.11442e-05
3.11443e-05
4.4966e-05
6.14378e-05
6.67942e-05
6.98635e-05
7.44143e-05
7.89179e-05
7.51327e-05
6.83545e-05
6.68247e-05
6.62509e-05
6.59634e-05
6.4281e-05
6.41094e-05
5.63081e-05
3.187e-05
4.47952e-05
6.16145e-05
6.48533e-05
6.79358e-05
6.78321e-05
6.83682e-05
6.97226e-05
6.79668e-05
6.64244e-05
6.61294e-05
6.59781e-05
6.58619e-05
6.57139e-05
6.43717e-05
6.4318e-05
5.56367e-05
3.1817e-05
5.80877e-05
6.58562e-05
6.71484e-05
6.67426e-05
6.59853e-05
6.56592e-05
6.59104e-05
6.55852e-05
6.55044e-05
6.57021e-05
6.58768e-05
6.59291e-05
6.58551e-05
6.56868e-05
6.4353e-05
6.3354e-05
4.49359e-05
4.65172e-05
6.41359e-05
6.71041e-05
6.67914e-05
6.59819e-05
6.53594e-05
6.49853e-05
6.49215e-05
6.49445e-05
6.52062e-05
6.56371e-05
6.60488e-05
6.63025e-05
6.6372e-05
6.62707e-05
6.59697e-05
6.40601e-05
5.93332e-05
3.32759e-05
5.70713e-05
6.39813e-05
6.71888e-05
6.66692e-05
6.583e-05
6.53125e-05
6.49012e-05
6.47244e-05
6.47816e-05
6.51829e-05
6.57721e-05
6.64544e-05
6.70801e-05
6.74384e-05
6.74441e-05
6.70548e-05
6.63008e-05
6.34901e-05
4.15477e-05
3.5662e-05
6.10247e-05
6.49598e-05
6.72763e-05
6.67078e-05
6.58439e-05
6.5347e-05
6.49665e-05
6.47711e-05
6.47694e-05
6.52045e-05
6.5746e-05
6.61052e-05
6.67525e-05
6.73681e-05
6.77035e-05
6.76316e-05
6.69063e-05
6.49892e-05
5.03883e-05
4.24616e-05
6.25896e-05
6.54379e-05
6.7326e-05
6.69093e-05
6.6201e-05
6.55354e-05
6.5195e-05
6.5041e-05
6.47558e-05
6.48809e-05
6.54896e-05
6.57267e-05
6.61469e-05
6.67927e-05
6.72607e-05
6.74569e-05
6.72392e-05
6.55697e-05
5.53541e-05
4.29803e-05
6.26771e-05
6.53403e-05
6.74197e-05
6.72176e-05
6.67784e-05
6.61312e-05
6.56545e-05
6.54622e-05
6.4888e-05
6.45624e-05
6.51782e-05
6.53675e-05
6.55856e-05
6.62525e-05
6.68219e-05
6.7235e-05
6.73457e-05
6.55938e-05
5.60233e-05
3.8959e-05
6.20532e-05
6.50848e-05
6.74886e-05
6.76245e-05
6.73548e-05
6.67854e-05
6.6156e-05
6.58357e-05
6.5335e-05
6.49043e-05
6.49462e-05
6.50852e-05
6.53397e-05
6.58358e-05
6.64722e-05
6.70952e-05
6.73272e-05
6.53107e-05
5.37856e-05
5.96213e-05
6.43289e-05
6.71391e-05
6.77553e-05
6.77648e-05
6.7336e-05
6.66944e-05
6.60612e-05
6.55013e-05
6.49758e-05
6.47981e-05
6.48996e-05
6.52444e-05
6.57366e-05
6.63412e-05
6.70404e-05
6.7109e-05
6.43377e-05
4.91256e-05
5.37491e-05
6.31014e-05
6.61337e-05
6.65476e-05
6.66987e-05
6.66017e-05
6.62968e-05
6.58401e-05
6.52898e-05
6.4807e-05
6.46266e-05
6.47405e-05
6.51517e-05
6.57398e-05
6.64078e-05
6.70398e-05
6.55747e-05
6.16472e-05
4.18233e-05
4.22656e-05
6.1848e-05
6.41802e-05
6.56846e-05
6.58363e-05
6.58353e-05
6.56963e-05
6.5404e-05
6.50007e-05
6.46413e-05
6.45082e-05
6.46322e-05
6.50942e-05
6.58121e-05
6.65599e-05
6.69234e-05
6.40953e-05
5.48148e-05
5.07095e-05
6.38522e-05
6.42558e-05
6.54781e-05
6.55462e-05
6.54763e-05
6.52534e-05
6.49226e-05
6.46432e-05
6.45572e-05
6.47172e-05
6.52404e-05
6.60366e-05
6.66104e-05
6.46942e-05
5.98248e-05
3.97703e-05
3.40563e-05
5.58034e-05
6.39805e-05
6.41539e-05
6.53554e-05
6.53914e-05
6.52797e-05
6.50688e-05
6.49116e-05
6.4923e-05
6.51499e-05
6.56504e-05
6.61099e-05
6.44838e-05
6.10588e-05
4.42689e-05
3.56171e-05
5.50031e-05
6.30085e-05
6.36574e-05
6.51884e-05
6.52659e-05
6.52445e-05
6.52416e-05
6.53081e-05
6.54599e-05
6.44325e-05
6.48123e-05
6.00217e-05
4.34831e-05
4.47169e-05
5.88849e-05
6.30331e-05
6.43371e-05
6.46425e-05
6.4625e-05
6.45484e-05
6.38419e-05
6.12971e-05
5.38583e-05
3.56536e-05
3.33393e-05
4.22517e-05
4.99867e-05
5.48111e-05
5.52906e-05
5.29797e-05
4.8212e-05
3.64415e-05
6.77561e-05
5.80977e-05
5.01183e-05
4.00823e-05
4.26804e-05
5.15434e-05
8.13154e-05
7.45849e-05
9.25346e-05
6.98377e-05
6.57527e-05
6.31763e-05
5.65711e-05
4.3119e-05
5.07377e-05
6.06288e-05
6.80549e-05
8.19495e-05
8.00923e-05
7.82594e-05
7.93309e-05
7.68913e-05
7.703e-05
6.77742e-05
6.47887e-05
5.23315e-05
3.23488e-05
4.83996e-05
6.62431e-05
7.21046e-05
6.94262e-05
8.56589e-05
9.62375e-05
9.30311e-05
8.96401e-05
8.63706e-05
8.30608e-05
8.02649e-05
7.69565e-05
6.65819e-05
5.89139e-05
3.4259e-05
4.92161e-05
6.63406e-05
7.30829e-05
6.79336e-05
7.17317e-05
8.97591e-05
9.56528e-05
9.0395e-05
8.57842e-05
8.29333e-05
8.12741e-05
8.02755e-05
7.95229e-05
7.8299e-05
6.67633e-05
5.7881e-05
4.01831e-05
6.13451e-05
7.13249e-05
6.74781e-05
6.80918e-05
7.19733e-05
8.88775e-05
9.1021e-05
8.54689e-05
8.07052e-05
7.7892e-05
7.6782e-05
7.69826e-05
7.75861e-05
7.78368e-05
7.857e-05
6.6028e-05
4.70616e-05
5.00073e-05
6.71811e-05
6.75124e-05
6.76915e-05
6.82165e-05
7.15583e-05
8.64573e-05
8.62649e-05
8.0755e-05
7.63817e-05
7.40754e-05
7.33761e-05
7.375e-05
7.48751e-05
7.63539e-05
7.77222e-05
7.77784e-05
6.24093e-05
3.58892e-05
6.14805e-05
7.12608e-05
6.78517e-05
6.8017e-05
6.84088e-05
7.09092e-05
8.29227e-05
8.08229e-05
7.6101e-05
7.26545e-05
7.12646e-05
7.10834e-05
7.15821e-05
7.27128e-05
7.44733e-05
7.64069e-05
8.01123e-05
6.77146e-05
4.68872e-05
4.07499e-05
6.43115e-05
6.78371e-05
6.83128e-05
6.84712e-05
6.87322e-05
7.02155e-05
7.83221e-05
7.57685e-05
7.1852e-05
6.91363e-05
6.87225e-05
6.95741e-05
7.04009e-05
7.12427e-05
7.26853e-05
7.46618e-05
7.88472e-05
7.03425e-05
5.15341e-05
4.56153e-05
6.63828e-05
6.81841e-05
6.88948e-05
6.90874e-05
6.92428e-05
6.97759e-05
7.33331e-05
7.10847e-05
8.06405e-05
7.94267e-05
6.84343e-05
6.90467e-05
7.00772e-05
7.03597e-05
7.11801e-05
7.27055e-05
7.5521e-05
8.15122e-05
5.73984e-05
4.56437e-05
6.62009e-05
6.89117e-05
6.9612e-05
6.98687e-05
6.99319e-05
6.99476e-05
6.99987e-05
6.76975e-05
7.48487e-05
6.78135e-05
6.80941e-05
7.05311e-05
7.05964e-05
6.98176e-05
7.00029e-05
7.0923e-05
7.22536e-05
7.18472e-05
5.79536e-05
4.23511e-05
6.55311e-05
6.95265e-05
7.04829e-05
7.07877e-05
7.07602e-05
7.04227e-05
6.97091e-05
6.83744e-05
6.90992e-05
7.16734e-05
7.14638e-05
7.66883e-05
7.25958e-05
6.95479e-05
6.91687e-05
6.95711e-05
7.01346e-05
7.00974e-05
5.59485e-05
6.31438e-05
7.06787e-05
7.14841e-05
7.18672e-05
7.18594e-05
7.13972e-05
7.07226e-05
7.00992e-05
7.03327e-05
7.2326e-05
7.64347e-05
8.20397e-05
7.51501e-05
6.95121e-05
6.85907e-05
6.86766e-05
6.89257e-05
7.00828e-05
5.46957e-05
5.71478e-05
6.88115e-05
7.26275e-05
7.31086e-05
7.337e-05
7.3057e-05
7.25276e-05
7.2407e-05
7.35195e-05
7.64801e-05
8.16154e-05
8.78071e-05
7.7094e-05
6.95527e-05
6.81976e-05
6.81379e-05
6.83673e-05
6.68958e-05
4.90986e-05
4.60504e-05
6.46031e-05
7.29013e-05
7.43796e-05
7.51834e-05
7.54611e-05
7.53018e-05
7.55812e-05
7.72557e-05
8.09182e-05
8.65351e-05
9.25892e-05
7.80736e-05
6.95419e-05
6.79434e-05
6.78318e-05
6.78755e-05
5.84616e-05
5.18376e-05
6.62075e-05
7.55057e-05
7.67357e-05
7.79659e-05
7.8842e-05
7.97978e-05
8.17766e-05
8.55768e-05
9.11473e-05
9.58959e-05
7.82567e-05
6.94316e-05
6.77757e-05
6.76172e-05
6.32729e-05
4.55714e-05
3.67023e-05
5.85079e-05
6.62631e-05
7.73302e-05
7.8819e-05
8.1341e-05
8.40787e-05
8.69262e-05
9.04296e-05
9.5002e-05
9.64394e-05
7.68331e-05
6.90186e-05
6.76831e-05
6.62656e-05
4.72051e-05
3.81786e-05
5.72201e-05
6.54049e-05
7.52191e-05
7.88634e-05
8.18053e-05
8.42938e-05
8.54575e-05
8.71598e-05
8.43388e-05
7.2539e-05
6.91573e-05
6.32831e-05
4.61064e-05
4.65119e-05
6.16214e-05
6.58593e-05
6.67655e-05
7.5047e-05
6.76424e-05
7.65565e-05
6.8602e-05
6.48163e-05
5.68626e-05
4.1525e-05
3.55323e-05
4.63621e-05
5.11059e-05
5.61653e-05
5.66213e-05
5.47664e-05
5.27774e-05
4.304e-05
4.94026e-05
4.96432e-05
4.59007e-05
3.79702e-05
4.66369e-05
5.20364e-05
7.76576e-05
8.58527e-05
8.19585e-05
6.653e-05
6.37761e-05
6.27777e-05
5.67525e-05
4.38329e-05
5.23179e-05
6.15813e-05
7.57158e-05
0.000122324
0.000119544
0.000113512
0.000106233
0.000101217
9.7624e-05
6.8584e-05
6.52749e-05
5.1877e-05
3.23247e-05
5.08272e-05
7.08338e-05
8.47211e-05
9.2222e-05
0.000308565
0.000300471
0.000266216
0.000197753
0.000143442
0.000115789
6.67029e-05
5.96729e-05
3.4867e-05
5.22161e-05
7.10995e-05
6.7879e-05
6.98532e-05
8.77792e-05
0.000450417
0.00036512
0.000325699
0.000239633
0.000177035
0.000133408
0.000113756
6.69515e-05
5.8066e-05
4.56497e-05
6.41856e-05
8.65684e-05
6.81832e-05
6.99368e-05
8.50704e-05
0.000413266
0.000318566
0.000277766
0.000209076
0.000165545
0.000136958
0.000116602
0.000102298
6.64789e-05
4.76409e-05
5.17951e-05
7.8325e-05
6.87062e-05
6.89716e-05
7.02463e-05
8.20084e-05
0.000352732
0.000261707
0.000226033
0.000171338
0.000139649
0.000124206
0.000112369
0.000100709
9.2839e-05
6.43499e-05
3.35818e-05
6.38928e-05
6.96153e-05
7.01319e-05
7.05297e-05
7.13656e-05
7.98364e-05
0.000277501
0.000196266
0.000171496
0.000136211
0.000115906
0.000108347
0.00010367
9.68084e-05
9.09325e-05
8.30572e-05
4.72589e-05
4.4891e-05
6.71411e-05
7.08223e-05
7.2325e-05
7.30144e-05
7.36212e-05
7.91286e-05
0.000184797
0.000124087
0.000115065
0.000105418
9.75478e-05
9.51391e-05
9.41529e-05
9.07202e-05
8.67638e-05
8.53055e-05
5.10788e-05
4.62763e-05
6.97891e-05
7.26799e-05
7.51664e-05
7.6515e-05
7.71817e-05
7.96529e-05
7.0963e-05
8.51865e-05
8.6244e-05
8.58296e-05
8.60161e-05
8.4293e-05
8.14462e-05
8.58473e-05
5.84261e-05
4.58721e-05
7.01007e-05
7.49864e-05
7.86777e-05
8.10011e-05
8.2084e-05
8.2607e-05
8.30809e-05
7.20381e-05
6.45097e-05
8.88898e-05
8.38751e-05
7.969e-05
7.97013e-05
7.86794e-05
7.68467e-05
8.40508e-05
5.89652e-05
4.22306e-05
6.91068e-05
7.78942e-05
8.28562e-05
8.643e-05
8.86093e-05
8.98865e-05
9.20996e-05
9.70354e-05
8.59881e-05
0.00011579
0.000101107
7.58525e-05
7.49867e-05
7.44335e-05
7.35413e-05
8.16827e-05
5.66711e-05
6.64183e-05
8.09912e-05
8.73804e-05
9.26923e-05
9.73217e-05
0.000101884
0.000111347
0.000137588
0.000150277
0.000185988
0.000108048
7.39433e-05
7.1786e-05
7.15019e-05
7.12067e-05
7.815e-05
5.54054e-05
5.8857e-05
9.2186e-05
9.1519e-05
9.90569e-05
0.000108008
0.000118403
0.000136858
0.00018097
0.000213935
0.000258485
0.000112212
7.37904e-05
6.98862e-05
6.96332e-05
6.95936e-05
7.25002e-05
5.01425e-05
4.62841e-05
6.62851e-05
9.52016e-05
0.000103779
0.000118193
0.000137552
0.000166255
0.000224251
0.000270971
0.000319928
0.000114892
7.43714e-05
6.88897e-05
6.85583e-05
8.36155e-05
6.08973e-05
5.18861e-05
6.65405e-05
0.000105888
0.000122325
0.000150966
0.000195534
0.000268242
0.000324099
0.000372031
0.000118931
7.55666e-05
6.84908e-05
6.81121e-05
6.62582e-05
4.97941e-05
3.68647e-05
5.92065e-05
6.65946e-05
0.000115822
0.000138539
0.000195047
0.000291175
0.000351935
0.000383641
0.000128457
7.533e-05
6.87301e-05
7.11597e-05
4.94522e-05
3.87455e-05
5.75337e-05
6.56359e-05
0.000106611
0.000116961
0.000149648
0.000154717
0.000157349
0.000188822
0.000166112
0.000121417
8.17114e-05
6.53676e-05
4.85346e-05
4.68331e-05
6.19961e-05
6.6902e-05
6.81964e-05
6.95276e-05
7.08236e-05
7.205e-05
7.18123e-05
6.83162e-05
5.8749e-05
4.79569e-05
3.5895e-05
4.75976e-05
4.97724e-05
5.60314e-05
5.68876e-05
5.50297e-05
5.5738e-05
4.86e-05
3.74447e-05
4.35963e-05
4.30862e-05
3.70951e-05
4.15587e-05
5.10708e-05
6.56242e-05
7.7632e-05
6.82319e-05
6.5386e-05
6.38235e-05
6.28127e-05
5.70587e-05
4.38525e-05
5.02408e-05
6.28229e-05
7.51399e-05
7.19709e-05
7.48784e-05
8.03975e-05
8.38882e-05
8.32573e-05
8.11534e-05
6.83446e-05
6.57489e-05
5.17908e-05
3.17626e-05
5.11106e-05
6.99428e-05
8.32475e-05
6.80314e-05
7.4032e-05
8.34842e-05
0.000183422
0.000215588
0.000240801
0.000197356
0.00013794
0.000105441
6.67963e-05
5.98862e-05
3.43358e-05
4.97211e-05
6.98828e-05
6.75786e-05
6.76429e-05
6.81422e-05
7.65807e-05
9.50464e-05
0.00018937
0.000230007
0.000266197
0.000230543
0.000182571
0.000133852
0.000108794
6.68875e-05
5.80892e-05
4.17809e-05
6.39426e-05
8.07343e-05
6.78938e-05
6.80006e-05
6.83615e-05
7.62971e-05
9.28847e-05
0.000163023
0.000200749
0.000239127
0.000212889
0.000178414
0.000145852
0.000117674
9.88428e-05
6.59932e-05
4.73932e-05
5.14493e-05
7.30823e-05
6.8382e-05
6.85259e-05
6.86876e-05
6.89332e-05
7.57136e-05
8.8212e-05
0.000131494
0.000165887
0.000203759
0.000182303
0.000155827
0.000135387
0.000116349
9.8219e-05
9.02899e-05
6.27517e-05
3.03801e-05
6.29585e-05
6.90816e-05
6.94709e-05
6.9862e-05
7.00966e-05
7.02245e-05
7.53419e-05
8.22454e-05
9.73542e-05
0.000129121
0.000167732
0.000151836
0.000131483
0.000118831
0.000107998
9.50546e-05
8.64011e-05
6.70221e-05
4.51331e-05
3.94498e-05
6.52346e-05
7.01855e-05
7.13894e-05
7.22937e-05
7.28292e-05
7.29051e-05
7.62309e-05
7.67217e-05
6.93271e-05
9.86937e-05
0.000136785
0.00012452
0.000110106
0.000103238
9.74419e-05
8.87533e-05
8.18524e-05
6.87054e-05
4.94997e-05
4.3162e-05
6.59877e-05
7.1975e-05
7.41641e-05
7.63024e-05
7.76181e-05
7.79828e-05
7.99917e-05
7.73832e-05
0.000117176
0.00010134
9.30274e-05
9.05764e-05
8.75937e-05
8.20081e-05
7.74069e-05
7.02464e-05
5.68411e-05
4.31174e-05
6.54703e-05
7.45305e-05
7.80802e-05
8.21609e-05
8.47304e-05
8.61413e-05
8.87794e-05
9.69312e-05
9.00946e-05
8.35238e-05
8.18459e-05
8.11918e-05
7.96162e-05
7.65726e-05
7.40172e-05
7.17894e-05
5.759e-05
3.90556e-05
6.43789e-05
7.80742e-05
8.31574e-05
8.95022e-05
9.41851e-05
9.81674e-05
0.000105754
0.000136039
0.000118498
9.97996e-05
7.05751e-05
7.69484e-05
7.50324e-05
7.47756e-05
7.41396e-05
7.28197e-05
7.16619e-05
7.28271e-05
5.57938e-05
6.30872e-05
8.24948e-05
8.86663e-05
9.76437e-05
0.000105979
0.000114425
0.000127888
0.000159693
0.000133976
9.37805e-05
8.15664e-05
8.06736e-05
7.22066e-05
7.11998e-05
7.08934e-05
7.04134e-05
7.00356e-05
7.24574e-05
5.33089e-05
5.76085e-05
6.73365e-05
9.30574e-05
0.000104809
0.000118991
0.000133885
0.000153858
0.000190205
0.000170378
0.000128167
9.60239e-05
7.9783e-05
7.09099e-05
6.94393e-05
6.91423e-05
6.89852e-05
6.8991e-05
6.94206e-05
4.63002e-05
4.52951e-05
6.54321e-05
9.62288e-05
0.000107768
0.000129283
0.000153571
0.000181756
0.000223283
0.000207273
0.000161819
0.000108273
8.20795e-05
7.00376e-05
6.84527e-05
6.82611e-05
6.82177e-05
7.66184e-05
6.06613e-05
5.17474e-05
6.63301e-05
0.000105652
0.000128621
0.000163213
0.000204439
0.000253906
0.00024187
0.000193012
0.000117887
8.35173e-05
6.95987e-05
6.79908e-05
6.78438e-05
6.78785e-05
6.63088e-05
4.68059e-05
3.56926e-05
5.94443e-05
6.66803e-05
0.000111657
0.000139009
0.000197002
0.000265177
0.000255296
0.000211052
0.000120502
8.16824e-05
6.96725e-05
6.77463e-05
6.76551e-05
7.05789e-05
4.95814e-05
3.81547e-05
5.78044e-05
6.58028e-05
9.01099e-05
9.37895e-05
0.000112669
0.000121765
0.000119953
9.04004e-05
7.47591e-05
6.93035e-05
8.15265e-05
6.60084e-05
4.94287e-05
4.7097e-05
6.2338e-05
6.69014e-05
6.79474e-05
6.90317e-05
7.02907e-05
7.15465e-05
7.19634e-05
6.89211e-05
6.00812e-05
4.77316e-05
3.55115e-05
4.82362e-05
4.98875e-05
5.6666e-05
5.7662e-05
5.58071e-05
5.60225e-05
4.8956e-05
3.32534e-05
4.10813e-05
4.11232e-05
3.60799e-05
3.60649e-05
4.98737e-05
6.14619e-05
6.41834e-05
6.44532e-05
6.43062e-05
6.3517e-05
6.26362e-05
5.71467e-05
4.34969e-05
4.65772e-05
6.16174e-05
6.74725e-05
6.74838e-05
6.76492e-05
6.78597e-05
6.80489e-05
6.82007e-05
6.83063e-05
6.73115e-05
6.56534e-05
5.17815e-05
3.12012e-05
4.98378e-05
6.63622e-05
6.81078e-05
6.73594e-05
6.77273e-05
6.8407e-05
6.97474e-05
6.99447e-05
6.99007e-05
7.00597e-05
6.93884e-05
6.88507e-05
6.66259e-05
5.99675e-05
3.40382e-05
4.63623e-05
6.63619e-05
6.72718e-05
6.73399e-05
6.74799e-05
6.79173e-05
6.87275e-05
7.04311e-05
7.03104e-05
6.9045e-05
6.95161e-05
7.07569e-05
6.96016e-05
6.89496e-05
6.68006e-05
5.8146e-05
3.54549e-05
6.21743e-05
6.80129e-05
6.73686e-05
6.74314e-05
6.75626e-05
6.79786e-05
6.87303e-05
6.97614e-05
6.92333e-05
6.77605e-05
6.81512e-05
7.06546e-05
7.04515e-05
6.93149e-05
6.87476e-05
6.5909e-05
4.72755e-05
5.02017e-05
6.7297e-05
6.73902e-05
6.74674e-05
6.75326e-05
6.76379e-05
6.79649e-05
6.84246e-05
6.85165e-05
6.76632e-05
6.65747e-05
6.70517e-05
6.96913e-05
7.0614e-05
6.95077e-05
6.87609e-05
6.84847e-05
6.24683e-05
2.97478e-05
6.14977e-05
6.73891e-05
6.75359e-05
6.76132e-05
6.7672e-05
6.77348e-05
6.78686e-05
6.7718e-05
6.67374e-05
6.57981e-05
6.55632e-05
6.64239e-05
6.87722e-05
7.00832e-05
6.93723e-05
6.86747e-05
6.83761e-05
6.6278e-05
4.44623e-05
3.3225e-05
6.34562e-05
6.75224e-05
6.77186e-05
6.78074e-05
6.78639e-05
6.78468e-05
6.75987e-05
6.64007e-05
6.69595e-05
6.55937e-05
6.50505e-05
6.60741e-05
6.80873e-05
6.92347e-05
6.88881e-05
6.84656e-05
6.82481e-05
6.66478e-05
4.88255e-05
4.0117e-05
6.42384e-05
6.76711e-05
6.7917e-05
6.80789e-05
6.81795e-05
6.80262e-05
6.72071e-05
6.64253e-05
8.69702e-05
6.68031e-05
6.76743e-05
6.84971e-05
6.84257e-05
6.82425e-05
6.81025e-05
6.68341e-05
5.60548e-05
4.06168e-05
6.42016e-05
6.78552e-05
6.81581e-05
6.84776e-05
6.87943e-05
6.84475e-05
6.7119e-05
6.99669e-05
9.70696e-05
6.60422e-05
6.75702e-05
6.80819e-05
6.81293e-05
6.80451e-05
6.79562e-05
6.69835e-05
5.66977e-05
3.66764e-05
6.35737e-05
6.80648e-05
6.84408e-05
6.90509e-05
6.97677e-05
6.91687e-05
6.72894e-05
6.81068e-05
9.44623e-05
9.29973e-05
7.16635e-05
6.81266e-05
6.77822e-05
6.79265e-05
6.79291e-05
6.78718e-05
6.78202e-05
6.70756e-05
5.4794e-05
6.26223e-05
6.82887e-05
6.87137e-05
6.96414e-05
7.08029e-05
7.01105e-05
6.75544e-05
6.54751e-05
6.47231e-05
6.51683e-05
6.97787e-05
7.91194e-05
6.79658e-05
6.78275e-05
6.77708e-05
6.77215e-05
6.77005e-05
6.70825e-05
5.10347e-05
5.71898e-05
6.67598e-05
6.88393e-05
6.98023e-05
7.1329e-05
7.10015e-05
6.81088e-05
6.60912e-05
6.63579e-05
6.74421e-05
6.86997e-05
7.0246e-05
6.78724e-05
6.77026e-05
6.76325e-05
6.75963e-05
6.75998e-05
6.62537e-05
4.16898e-05
4.48027e-05
6.53286e-05
6.88577e-05
6.94676e-05
7.09723e-05
7.1563e-05
6.90397e-05
6.6839e-05
6.66771e-05
6.81609e-05
7.67113e-05
6.83445e-05
6.78058e-05
6.7589e-05
6.75222e-05
6.74942e-05
6.78399e-05
5.93767e-05
5.16991e-05
6.62987e-05
6.90373e-05
6.99564e-05
7.11668e-05
7.02103e-05
6.81302e-05
6.90178e-05
7.05079e-05
6.98507e-05
6.83403e-05
6.77385e-05
6.75001e-05
6.74394e-05
6.7412e-05
6.41043e-05
4.14303e-05
3.43451e-05
5.96046e-05
6.66242e-05
6.90732e-05
6.96909e-05
7.05292e-05
6.9562e-05
7.00444e-05
7.0883e-05
6.94748e-05
6.82088e-05
6.76273e-05
6.7392e-05
6.73476e-05
6.64912e-05
4.82385e-05
3.69429e-05
5.79767e-05
6.58056e-05
6.86361e-05
6.87317e-05
6.91549e-05
6.90121e-05
6.88021e-05
6.83385e-05
6.77807e-05
6.74553e-05
6.79849e-05
6.39423e-05
4.81953e-05
4.71309e-05
6.24408e-05
6.63277e-05
6.67141e-05
6.69398e-05
6.71115e-05
6.72112e-05
6.72117e-05
6.63488e-05
5.92764e-05
4.25219e-05
3.34181e-05
4.70021e-05
4.96092e-05
5.64787e-05
5.72258e-05
5.52531e-05
5.34244e-05
4.44854e-05
3.18887e-05
4.03371e-05
4.0543e-05
3.61822e-05
3.34199e-05
4.95357e-05
6.09683e-05
6.29854e-05
6.3894e-05
6.39563e-05
6.33716e-05
6.25444e-05
5.71552e-05
4.36076e-05
4.46913e-05
6.11418e-05
6.67254e-05
6.72007e-05
6.72194e-05
6.72358e-05
6.72491e-05
6.7262e-05
6.72778e-05
6.70436e-05
6.56086e-05
5.17588e-05
3.14374e-05
4.91345e-05
6.57442e-05
6.71674e-05
6.72417e-05
6.73155e-05
6.74064e-05
6.75123e-05
6.76082e-05
6.76834e-05
6.76845e-05
6.75616e-05
6.74675e-05
6.65664e-05
6.00817e-05
3.43381e-05
4.48507e-05
6.57144e-05
6.72067e-05
6.72655e-05
6.7318e-05
6.73896e-05
6.74897e-05
6.76087e-05
6.76881e-05
6.77461e-05
6.77915e-05
6.77489e-05
6.76232e-05
6.75411e-05
6.67712e-05
5.82072e-05
3.21732e-05
6.15448e-05
6.70445e-05
6.72719e-05
6.7315e-05
6.73584e-05
6.7418e-05
6.74941e-05
6.75786e-05
6.76181e-05
6.76539e-05
6.77024e-05
6.77241e-05
6.76861e-05
6.76124e-05
6.75285e-05
6.5902e-05
4.72708e-05
4.96579e-05
6.65422e-05
6.72441e-05
6.73099e-05
6.73477e-05
6.73793e-05
6.73976e-05
6.73682e-05
6.73429e-05
6.73709e-05
6.74492e-05
6.75392e-05
6.75997e-05
6.76347e-05
6.76107e-05
6.75453e-05
6.74733e-05
6.23894e-05
3.06633e-05
6.10026e-05
6.71656e-05
6.72991e-05
6.73506e-05
6.73786e-05
6.73825e-05
6.72712e-05
6.68579e-05
6.65086e-05
6.64768e-05
6.68601e-05
6.72481e-05
6.74533e-05
6.7555e-05
6.75749e-05
6.75356e-05
6.74612e-05
6.61621e-05
4.48659e-05
3.06477e-05
6.29766e-05
6.72102e-05
6.73477e-05
6.73872e-05
6.74063e-05
6.73543e-05
6.6936e-05
6.57776e-05
6.77271e-05
6.64809e-05
6.59874e-05
6.66177e-05
6.72394e-05
6.7481e-05
6.7536e-05
6.7513e-05
6.74564e-05
6.6448e-05
4.86684e-05
3.95179e-05
6.38252e-05
6.7238e-05
6.73789e-05
6.7423e-05
6.74293e-05
6.72931e-05
6.64883e-05
6.59782e-05
8.51278e-05
6.67772e-05
6.7035e-05
6.74271e-05
6.75038e-05
6.74868e-05
6.74406e-05
6.65458e-05
5.57384e-05
4.0479e-05
6.38839e-05
6.72721e-05
6.74091e-05
6.74579e-05
6.7448e-05
6.72437e-05
6.64402e-05
6.92779e-05
9.6797e-05
6.5779e-05
6.70042e-05
6.74246e-05
6.74753e-05
6.74574e-05
6.74184e-05
6.65757e-05
5.63056e-05
3.68534e-05
6.33303e-05
6.73085e-05
6.74377e-05
6.74912e-05
6.74762e-05
6.72952e-05
6.68054e-05
6.84411e-05
9.33745e-05
9.42936e-05
7.66242e-05
8.22186e-05
6.72294e-05
6.74399e-05
6.74467e-05
6.74267e-05
6.73954e-05
6.65428e-05
5.43022e-05
6.2459e-05
6.73432e-05
6.74595e-05
6.75221e-05
6.75197e-05
6.74077e-05
6.71322e-05
6.65536e-05
6.58142e-05
6.59383e-05
7.00332e-05
7.92644e-05
6.7414e-05
6.74422e-05
6.74227e-05
6.7398e-05
6.73727e-05
6.64749e-05
5.0158e-05
5.70476e-05
6.66761e-05
6.74658e-05
6.75447e-05
6.75713e-05
6.75156e-05
6.74231e-05
6.73294e-05
6.73176e-05
6.76634e-05
6.80105e-05
6.82577e-05
6.74374e-05
6.74211e-05
6.73944e-05
6.73711e-05
6.73494e-05
6.57235e-05
3.95777e-05
4.4611e-05
6.53195e-05
6.74554e-05
6.75451e-05
6.76171e-05
6.76271e-05
6.75957e-05
6.75902e-05
6.76391e-05
6.95108e-05
7.35396e-05
6.75306e-05
6.7432e-05
6.73915e-05
6.73631e-05
6.73375e-05
6.69394e-05
5.86641e-05
5.16965e-05
6.63149e-05
6.75095e-05
6.76108e-05
6.76953e-05
6.77313e-05
6.77238e-05
6.77134e-05
6.7744e-05
6.77934e-05
6.74865e-05
6.74044e-05
6.73563e-05
6.73274e-05
6.72933e-05
6.33997e-05
3.80995e-05
3.33826e-05
5.9715e-05
6.66385e-05
6.75189e-05
6.76027e-05
6.77307e-05
6.7767e-05
6.77246e-05
6.76483e-05
6.75413e-05
6.74302e-05
6.73481e-05
6.72894e-05
6.72608e-05
6.57903e-05
4.72523e-05
3.58971e-05
5.80544e-05
6.5833e-05
6.74105e-05
6.74261e-05
6.7538e-05
6.75021e-05
6.74447e-05
6.73821e-05
6.73154e-05
6.72533e-05
6.69743e-05
6.32575e-05
4.71585e-05
4.69917e-05
6.24742e-05
6.6199e-05
6.6482e-05
6.65981e-05
6.66495e-05
6.66344e-05
6.65641e-05
6.57442e-05
5.85352e-05
3.84059e-05
3.12412e-05
4.52681e-05
4.90477e-05
5.59641e-05
5.65733e-05
5.449e-05
5.10285e-05
4.05624e-05
3.15346e-05
4.01362e-05
4.05475e-05
3.65666e-05
3.28473e-05
4.95499e-05
6.08003e-05
6.28103e-05
6.371e-05
6.38165e-05
6.32996e-05
6.25038e-05
5.71207e-05
4.38335e-05
4.4935e-05
6.0985e-05
6.65517e-05
6.71473e-05
6.71528e-05
6.71528e-05
6.71479e-05
6.71445e-05
6.71449e-05
6.69415e-05
6.55898e-05
5.17928e-05
3.18951e-05
4.88458e-05
6.55428e-05
6.69682e-05
6.72095e-05
6.72454e-05
6.72725e-05
6.72967e-05
6.73186e-05
6.73342e-05
6.73275e-05
6.72829e-05
6.72413e-05
6.65387e-05
6.01091e-05
3.47078e-05
4.49877e-05
6.55319e-05
6.71876e-05
6.72387e-05
6.72693e-05
6.72924e-05
6.73149e-05
6.73403e-05
6.73669e-05
6.73879e-05
6.73954e-05
6.7373e-05
6.73269e-05
6.72934e-05
6.67882e-05
5.82988e-05
3.1484e-05
6.12731e-05
6.68878e-05
6.72438e-05
6.72767e-05
6.72959e-05
6.73077e-05
6.73133e-05
6.73272e-05
6.73582e-05
6.73889e-05
6.74095e-05
6.74088e-05
6.73817e-05
6.7347e-05
6.72989e-05
6.5925e-05
4.72737e-05
4.94553e-05
6.64116e-05
6.72101e-05
6.72703e-05
6.7296e-05
6.73043e-05
6.72834e-05
6.72057e-05
6.71455e-05
6.72009e-05
6.72946e-05
6.73675e-05
6.74002e-05
6.73963e-05
6.73703e-05
6.73306e-05
6.72813e-05
6.23919e-05
3.1264e-05
6.08054e-05
6.7118e-05
6.72509e-05
6.72942e-05
6.73087e-05
6.72934e-05
6.71615e-05
6.67474e-05
6.64217e-05
6.63852e-05
6.67723e-05
6.71465e-05
6.733e-05
6.73813e-05
6.73749e-05
6.73447e-05
6.72884e-05
6.61385e-05
4.51209e-05
3.05824e-05
6.2793e-05
6.71493e-05
6.72811e-05
6.73093e-05
6.73153e-05
6.72517e-05
6.68454e-05
6.57778e-05
6.80938e-05
6.65483e-05
6.58609e-05
6.65064e-05
6.71319e-05
6.73376e-05
6.73671e-05
6.73467e-05
6.73046e-05
6.64001e-05
4.86401e-05
4.00462e-05
6.36645e-05
6.71611e-05
6.72914e-05
6.73212e-05
6.73182e-05
6.71829e-05
6.64158e-05
6.59685e-05
8.40654e-05
6.6564e-05
6.69243e-05
6.72985e-05
6.73558e-05
6.73429e-05
6.73097e-05
6.64807e-05
5.56031e-05
4.0937e-05
6.376e-05
6.71744e-05
6.72981e-05
6.7332e-05
6.73212e-05
6.7134e-05
6.63489e-05
6.88595e-05
9.69928e-05
6.58361e-05
6.69159e-05
6.74253e-05
6.73587e-05
6.73361e-05
6.73077e-05
6.6485e-05
5.61404e-05
3.72636e-05
6.32301e-05
6.71884e-05
6.73021e-05
6.73419e-05
6.73372e-05
6.7193e-05
6.6719e-05
6.82247e-05
9.26625e-05
9.40071e-05
7.83407e-05
7.95588e-05
6.71706e-05
6.78677e-05
6.7363e-05
6.73273e-05
6.73013e-05
6.6433e-05
5.41005e-05
6.23966e-05
6.71978e-05
6.72997e-05
6.73486e-05
6.73636e-05
6.73095e-05
6.70735e-05
6.64879e-05
6.57645e-05
6.60011e-05
6.99603e-05
7.20261e-05
6.72957e-05
6.73592e-05
6.73331e-05
6.73167e-05
6.7289e-05
6.63451e-05
5.01915e-05
5.69865e-05
6.66591e-05
6.72836e-05
6.73442e-05
6.73786e-05
6.73794e-05
6.73315e-05
6.72292e-05
6.74938e-05
7.0447e-05
7.11619e-05
6.76217e-05
6.73145e-05
6.73306e-05
6.73219e-05
6.73039e-05
6.72699e-05
6.55733e-05
3.92204e-05
4.45124e-05
6.5343e-05
6.72498e-05
6.73207e-05
6.73716e-05
6.73987e-05
6.73995e-05
6.73757e-05
6.75624e-05
7.13345e-05
7.16451e-05
6.7528e-05
6.73246e-05
6.73192e-05
6.7306e-05
6.72802e-05
6.67669e-05
5.83427e-05
5.17461e-05
6.6344e-05
6.72724e-05
6.73355e-05
6.7378e-05
6.74045e-05
6.7406e-05
6.74016e-05
6.74752e-05
6.75559e-05
6.73532e-05
6.73135e-05
6.72998e-05
6.72829e-05
6.72477e-05
6.31031e-05
3.67513e-05
3.28148e-05
5.97995e-05
6.66587e-05
6.72656e-05
6.73049e-05
6.73564e-05
6.73771e-05
6.73744e-05
6.73549e-05
6.73295e-05
6.73022e-05
6.72785e-05
6.72513e-05
6.72272e-05
6.55642e-05
4.67995e-05
3.51408e-05
5.80952e-05
6.58609e-05
6.71947e-05
6.72121e-05
6.72796e-05
6.72805e-05
6.72699e-05
6.72549e-05
6.7233e-05
6.72001e-05
6.6763e-05
6.3011e-05
4.66295e-05
4.6835e-05
6.24592e-05
6.61411e-05
6.641e-05
6.65023e-05
6.65285e-05
6.64888e-05
6.63917e-05
6.55409e-05
5.8137e-05
3.61384e-05
2.96619e-05
4.3809e-05
4.85623e-05
5.55128e-05
5.60746e-05
5.39629e-05
4.95037e-05
3.82188e-05
3.14264e-05
4.01285e-05
4.0702e-05
3.69368e-05
3.28916e-05
4.95196e-05
6.07511e-05
6.2743e-05
6.36395e-05
6.37456e-05
6.32502e-05
6.2473e-05
5.71007e-05
4.40038e-05
4.52728e-05
6.09229e-05
6.64733e-05
6.71345e-05
6.7137e-05
6.71346e-05