/*--------------------------------*- C++ -*----------------------------------*\
| =========                 |                                                 |
| \\      /  F ield         | OpenFOAM: The Open Source CFD Toolbox           |
|  \\    /   O peration     | Version:  2112                                  |
|   \\  /    A nd           | Website:  www.openfoam.com                      |
|    \\/     M anipulation  |                                                 |
\*---------------------------------------------------------------------------*/
FoamFile
{
    version     2.0;
    format      ascii;
    arch        "LSB;label=32;scalar=64";
    class       surfaceScalarField;
    location    "0.225";
    object      meshPhi;
}
// * * * * * * * * * * * * * * * * * * * * * * * * * * * * * * * * * * * * * //

dimensions      [0 3 -1 0 0 0 0];

oriented        oriented;

internalField   nonuniform List<scalar> 
479170
(
0
0
0
0
0
0
0
0
0
0
0
0
0
0
0
0
0
0
0
0
0
0
0
0
0
0
0
0
0
0
0
0
0
0
0
0
0
0
0
0
0
0
0
0
0
0
0
0
0
0
0
0
0
0
0
0
0
0
0
0
0
0
0
0
0
0
0
0
0
0
0
0
0
0
0
0
0
0
0
0
0
0
0
0
0
0
0
0
0
0
0
0
0
0
0
0
0
0
0
0
0
0
0
0
0
0
0
0
0
0
0
0
0
0
0
0
0
0
0
0
0
0
0
0
0
0
0
0
0
0
0
0
0
0
0
0
0
0
0
0
0
0
0
0
0
0
0
0
0
0
0
0
0
0
0
0
0
0
0
0
0
0
0
0
0
0
0
0
0
0
0
0
0
0
0
0
0
0
0
0
0
0
0
0
0
0
0
0
0
0
0
0
0
0
0
0
0
0
0
0
0
0
0
0
0
0
0
0
0
0
0
0
0
0
0
0
0
0
0
0
0
0
0
0
0
0
0
0
0
0
0
0
0
0
0
0
0
0
0
0
0
0
0
0
0
0
0
0
0
0
0
0
0
0
0
0
0
0
0
0
0
0
0
0
0
0
0
0
0
0
0
0
0
0
0
0
0
0
0
0
0
0
0
0
0
0
0
0
0
0
0
0
0
0
0
0
0
0
0
0
0
0
0
0
0
0
0
0
0
0
0
0
0
0
0
0
0
0
0
0
0
0
0
0
0
0
0
0
0
0
0
0
0
0
0
0
0
0
0
0
0
0
0
0
0
0
0
0
0
0
0
0
0
0
0
0
0
0
0
0
0
0
0
0
0
0
0
0
0
0
0
0
0
0
0
0
0
0
0
0
0
0
0
0
0
0
0
0
0
0
0
0
0
0
0
0
0
0
0
0
0
0
0
0
0
0
0
0
0
0
0
0
0
0
0
0
0
0
0
0
0
0
0
0
0
0
0
0
0
0
0
0
0
0
0
0
0
0
0
0
0
0
0
0
0
0
0
0
0
0
0
0
0
0
0
0
0
0
0
0
0
0
0
0
0
0
0
0
0
0
0
0
0
0
0
0
0
0
0
0
0
0
0
0
0
0
0
0
0
0
0
0
0
0
0
0
0
0
0
0
0
0
0
0
0
0
0
0
0
0
0
0
0
0
0
0
0
0
0
0
0
0
0
0
0
0
0
0
0
0
0
0
0
0
0
0
0
0
0
0
0
0
0
0
0
0
0
0
0
0
0
0
0
0
0
0
0
0
0
0
0
0
0
0
0
0
0
0
0
0
0
0
0
0
0
0
0
0
0
0
0
0
0
0
0
0
0
0
0
0
0
0
0
0
0
0
0
0
0
0
0
0
0
0
0
0
0
0
0
0
0
0
0
0
0
0
0
0
0
0
0
0
0
0
0
0
0
0
0
0
0
0
0
0
0
0
0
0
0
0
0
0
0
0
0
0
0
0
0
0
0
0
0
0
0
0
0
0
0
0
0
0
0
0
0
0
0
0
0
0
0
0
0
0
0
0
0
0
0
0
0
0
0
0
0
0
0
0
0
0
0
0
0
0
0
0
0
0
0
0
0
0
0
0
0
0
0
0
0
0
0
0
0
0
0
0
0
0
0
0
0
0
0
0
0
0
0
0
0
0
0
0
0
0
0
0
0
0
0
0
0
0
0
0
0
0
0
0
0
0
0
0
0
0
0
0
0
0
0
0
0
0
0
0
0
0
0
0
0
0
0
0
0
0
0
0
0
0
0
0
0
0
0
0
0
0
0
0
0
0
0
0
0
0
0
0
0
0
0
0
0
0
0
0
0
0
0
0
0
0
0
0
0
0
0
0
0
0
0
0
0
0
0
0
0
0
0
0
0
0
0
0
0
0
0
0
0
0
0
0
0
0
0
0
0
0
0
0
0
0
0
0
0
0
0
0
0
0
0
0
0
0
0
0
0
0
0
0
0
0
0
0
0
0
0
0
0
0
0
0
0
0
0
0
0
0
0
0
0
0
0
0
0
0
0
0
0
0
0
0
0
0
0
0
0
0
0
0
0
0
0
0
0
0
0
0
0
0
0
0
0
0
0
0
0
0
0
0
0
0
0
0
0
0
0
0
0
0
0
0
0
0
0
0
0
0
0
0
0
0
0
0
0
0
0
0
0
0
0
0
0
0
0
0
0
0
0
0
0
0
0
0
0
0
0
0
0
0
0
0
0
0
0
0
0
0
0
0
0
0
0
0
0
0
0
0
0
0
0
0
0
0
0
0
0
0
0
0
0
0
0
0
0
0
0
0
0
0
0
0
0
0
0
0
0
0
0
0
0
0
0
0
0
0
0
0
0
0
0
0
0
0
0
0
0
0
0
0
0
0
0
0
0
0
0
0
0
0
0
0
0
0
0
0
0
0
0
0
0
0
0
0
0
0
0
0
0
0
0
0
0
0
0
0
0
0
0
0
0
0
0
0
0
0
0
0
0
0
0
0
0
0
0
0
0
0
0
0
0
0
0
0
0
0
0
0
0
0
0
0
0
0
0
0
0
0
0
0
0
0
0
0
0
0
0
0
0
0
0
0
0
0
0
0
0
0
0
0
0
0
0
0
0
0
0
0
0
0
0
0
0
0
0
0
0
0
0
0
0
0
0
0
0
0
0
0
0
0
0
0
0
0
0
0
0
0
0
0
0
0
0
0
0
0
0
0
0
0
0
0
0
0
0
0
0
0
0
0
0
0
0
0
0
0
0
0
0
0
0
0
0
0
0
0
0
0
0
0
0
0
0
0
0
0
0
0
0
0
0
0
0
0
0
0
0
0
0
0
0
0
0
0
0
0
0
0
0
0
0
0
0
0
0
0
0
0
0
0
0
0
0
0
0
0
0
0
0
0
0
0
0
0
0
0
0
0
0
0
0
0
0
0
0
0
0
0
0
0
0
0
0
0
0
0
0
0
0
0
0
0
0
0
0
0
0
0
0
0
0
0
0
0
0
0
0
0
0
0
0
0
0
0
0
0
0
0
0
0
0
0
0
0
0
0
0
0
0
0
0
0
0
0
0
0
0
0
0
0
0
0
0
0
0
0
0
0
0
0
0
0
0
0
0
0
0
0
0
0
0
0
0
0
0
0
0
0
0
0
0
0
0
0
0
0
0
0
0
0
0
0
0
0
0
0
0
0
0
0
0
0
0
0
0
0
0
0
0
0
0
0
0
0
0
0
0
0
0
0
0
0
0
0
0
0
0
0
0
0
0
0
0
0
0
0
0
0
0
0
0
0
0
0
0
0
0
0
0
0
0
0
0
0
0
0
0
0
0
0
0
0
0
0
0
0
0
0
0
0
0
0
0
0
0
0
0
0
0
0
0
0
0
0
0
0
0
0
0
0
0
0
0
0
0
0
0
0
0
0
0
0
0
0
0
0
0
0
0
0
0
0
0
0
0
0
0
0
0
0
0
0
0
0
0
0
0
0
0
0
0
0
0
0
0
0
0
0
0
0
0
0
0
0
0
0
0
0
0
0
0
0
0
0
0
0
0
0
0
0
0
0
0
0
0
0
0
0
0
0
0
0
0
0
0
0
0
0
0
0
0
0
0
0
0
0
0
0
0
0
0
0
0
0
0
0
0
0
0
0
0
0
0
0
0
0
0
0
0
0
0
0
0
0
0
0
0
0
0
0
0
0
0
0
0
0
0
0
0
0
0
0
0
0
0
0
0
0
0
0
0
0
0
0
0
0
0
0
0
0
0
0
0
0
0
0
0
0
0
0
0
0
0
0
0
0
0
0
0
0
0
0
0
0
0
0
0
0
0
0
0
0
0
0
0
0
0
0
0
0
0
0
0
0
0
0
0
0
0
0
0
0
0
0
0
0
0
0
0
0
0
0
0
0
0
0
0
0
0
0
0
0
0
0
0
0
0
0
0
0
0
0
0
0
0
0
0
0
0
0
0
0
0
0
0
0
0
0
0
0
0
0
0
0
0
0
0
0
0
0
0
0
0
0
0
0
0
0
0
0
0
0
0
0
0
0
0
0
0
0
0
0
0
0
0
0
0
0
0
0
0
0
0
0
0
0
0
0
0
0
0
0
0
0
0
0
0
0
0
0
0
0
0
0
0
0
0
0
0
0
0
0
0
0
0
0
0
0
0
0
0
0
0
0
0
0
0
0
0
0
0
0
0
0
0
0
0
0
0
0
0
0
0
0
0
0
0
0
0
0
0
0
0
0
0
0
0
0
0
0
0
0
0
0
0
0
0
0
0
0
0
0
0
0
0
0
0
0
0
0
0
0
0
0
0
0
0
0
0
0
0
0
0
0
0
0
0
0
0
0
0
0
0
0
0
0
0
0
0
0
0
0
0
0
0
0
0
0
0
0
0
0
0
0
0
0
0
0
0
0
0
0
0
0
0
0
0
0
0
0
0
0
0
0
0
0
0
0
0
0
0
0
0
0
0
0
0
0
0
0
0
0
0
0
0
0
0
0
0
0
0
0
0
0
0
0
0
0
0
0
0
0
0
0
0
0
0
0
0
0
0
0
0
0
0
0
0
0
0
0
0
0
0
0
0
0
0
0
0
0
0
0
0
0
0
0
0
0
0
0
0
0
0
0
0
0
0
0
0
0
0
0
0
0
0
0
0
0
0
0
0
0
0
0
0
0
0
0
0
0
0
0
0
0
0
0
0
0
0
0
0
0
0
0
0
0
0
0
0
0
0
0
0
0
0
0
0
0
0
0
0
0
0
0
0
0
0
0
0
0
0
0
0
0
0
0
0
0
0
0
0
0
0
0
0
0
0
0
0
0
0
0
0
0
0
0
0
0
0
0
0
0
0
0
0
0
0
0
0
0
0
0
0
0
0
0
0
0
0
0
0
0
0
0
0
0
0
0
0
0
0
0
0
0
0
0
0
0
0
0
0
0
0
0
0
0
0
0
0
0
0
0
0
0
0
0
0
0
0
0
0
0
0
0
0
0
0
0
0
0
0
0
0
0
0
0
0
0
0
0
0
0
0
0
0
0
0
0
0
0
0
0
0
0
0
0
0
0
0
0
0
0
0
0
0
0
0
0
0
0
0
0
0
0
0
0
0
0
0
0
0
0
0
0
0
0
0
0
0
0
0
0
0
0
0
0
0
0
0
0
0
0
0
0
0
0
0
0
0
0
0
0
0
0
0
0
0
0
0
0
0
0
0
0
0
0
0
0
0
0
0
0
0
0
0
0
0
0
0
0
0
0
0
0
0
0
0
0
0
0
0
0
0
0
0
0
0
0
0
0
0
0
0
0
0
0
0
0
0
0
0
0
0
0
0
0
0
0
0
0
0
0
0
0
0
0
0
0
0
0
0
0
0
0
0
0
0
0
0
0
0
0
0
0
0
0
0
0
0
0
0
0
0
0
0
0
0
0
0
0
0
0
0
0
0
0
0
0
0
0
0
0
0
0
0
0
0
0
0
0
0
0
0
0
0
0
0
0
0
0
0
0
0
0
0
0
0
0
0
0
0
0
0
0
0
0
0
0
0
0
0
0
0
0
0
0
0
0
0
0
0
0
0
0
0
0
0
0
0
0
0
0
0
0
0
0
0
0
0
0
0
0
0
0
0
0
0
0
0
0
0
0
0
0
0
0
0
0
0
0
0
0
0
0
0
0
0
0
0
0
0
0
0
0
0
0
0
0
0
0
0
0
0
0
0
0
0
0
0
0
0
0
0
0
0
0
0
0
0
0
0
0
0
0
0
0
0
0
0
0
0
0
0
0
0
0
0
0
0
0
0
0
0
0
0
0
0
0
0
0
0
0
0
0
0
0
0
0
0
0
0
0
0
0
0
0
0
0
0
0
0
0
0
0
0
0
0
0
0
0
0
0
0
0
0
0
0
0
0
0
0
0
0
0
0
0
0
0
0
0
0
0
0
0
0
0
0
0
0
0
0
0
0
0
0
0
0
0
0
0
0
0
0
0
0
0
0
0
0
0
0
0
0
0
0
0
0
0
0
0
0
0
0
0
0
0
0
0
0
0
0
0
0
0
0
0
0
0
0
0
0
0
0
0
0
0
0
0
0
0
0
0
0
0
0
0
0
0
0
0
0
0
0
0
0
0
0
0
0
0
0
0
0
0
0
0
0
0
0
0
0
0
0
0
0
0
0
0
0
0
0
0
0
0
0
0
0
0
0
0
0
0
0
0
0
0
0
0
0
0
0
0
0
0
0
0
0
0
0
0
0
0
0
0
0
0
0
0
0
0
0
0
0
0
0
0
0
0
0
0
0
0
0
0
0
0
0
0
0
0
0
0
0
0
0
0
0
0
0
0
0
0
0
0
0
0
0
0
0
0
0
0
0
0
0
0
0
0
0
0
0
0
0
0
0
0
0
0
0
0
0
0
0
0
0
0
0
0
0
0
0
0
0
0
0
0
0
0
0
0
0
0
0
0
0
0
0
0
0
0
0
0
0
0
0
0
0
0
0
0
0
0
0
0
0
0
0
0
0
0
0
0
0
0
0
0
0
0
0
0
0
0
0
0
0
0
0
0
0
0
0
0
0
0
0
0
0
0
0
0
0
0
0
0
0
0
0
0
0
0
0
0
0
0
0
0
0
0
0
0
0
0
0
0
0
0
0
0
0
0
0
0
0
0
0
0
0
0
0
0
0
0
0
0
0
0
0
0
0
0
0
0
0
0
0
0
0
0
0
0
0
0
0
0
0
0
0
0
0
0
0
0
0
0
0
0
0
0
0
0
0
0
0
0
0
0
0
0
0
0
0
0
0
0
0
0
0
0
0
0
0
0
0
0
0
0
0
0
0
0
0
0
0
0
0
0
0
0
0
0
0
0
0
0
0
0
0
0
0
0
0
0
0
0
0
0
0
0
0
0
0
0
0
0
0
0
0
0
0
0
0
0
0
0
0
0
0
0
0
0
0
0
0
0
0
0
0
0
0
0
0
0
0
0
0
0
0
0
0
0
0
0
0
0
0
0
0
0
0
0
0
0
0
0
0
0
0
0
0
0
0
0
0
0
0
0
0
0
0
0
0
0
0
0
0
0
0
0
0
0
0
0
0
0
0
0
0
0
0
0
0
0
0
0
0
0
0
0
0
0
0
0
0
0
0
0
0
0
0
0
0
0
0
0
0
0
0
0
0
0
0
0
0
0
0
0
0
0
0
0
0
0
0
0
0
0
0
0
0
0
0
0
0
0
0
0
0
0
0
0
0
0
0
0
0
0
0
0
0
0
0
0
0
0
0
0
0
0
0
0
0
0
0
0
0
0
0
0
0
0
0
0
0
0
0
0
0
0
0
0
0
0
0
0
0
0
0
0
0
0
0
0
0
0
0
0
0
0
0
0
0
0
0
0
0
0
0
0
0
0
0
0
0
0
0
0
0
0
0
0
0
0
0
0
0
0
0
0
0
0
0
0
0
0
0
0
0
0
0
0
0
0
0
0
0
0
0
0
0
0
0
0
0
0
0
0
0
0
0
0
0
0
0
0
0
0
0
0
0
0
0
0
0
0
0
0
0
0
0
0
0
0
0
0
0
0
0
0
0
0
0
0
0
0
0
0
0
0
0
0
0
0
0
0
0
0
0
0
0
0
0
0
0
0
0
0
0
0
0
0
0
0
0
0
0
0
0
0
0
0
0
0
0
0
2.81492e-08
1.76367e-09
2.02933e-08
8.36972e-10
2.69637e-08
3.17461e-08
2.60321e-08
-9.55381e-11
-2.56465e-09
1.32892e-10
-2.76042e-08
-3.65092e-08
-2.78245e-08
-4.01484e-08
3.64532e-10
2.28686e-09
2.56258e-08
-2.77708e-08
-2.56303e-10
-2.50129e-10
4.68212e-09
1.41605e-07
5.91665e-10
-7.50157e-10
-2.94905e-09
-2.94161e-10
1.21146e-10
-3.11768e-08
-3.47872e-08
-3.16939e-08
-4.41922e-08
5.15949e-12
3.18107e-09
2.56405e-08
-2.57875e-08
-2.90408e-09
-1.3508e-10
4.29395e-09
1.11904e-07
-3.06236e-08
-9.80603e-09
4.04818e-10
1.64258e-10
-1.53169e-11
-3.55089e-08
-3.97318e-08
0
0
0
0
0
0
0
0
0
0
0
0
0
0
0
0
0
0
0
0
0
0
0
0
0
0
0
0
0
0
0
0
0
0
0
0
0
0
0
0
0
0
0
0
-1.35029e-08
3.11878e-10
2.30798e-08
-2.41505e-08
1.44494e-08
-1.87733e-10
2.21675e-08
-9.25685e-08
3.9125e-08
1.07147e-08
-9.76735e-09
-2.9893e-09
2.13208e-08
2.20313e-08
1.78211e-08
-8.82949e-09
-1.19501e-08
-7.07581e-09
1.05236e-07
-9.3941e-10
-2.41781e-08
-1.12847e-07
2.76225e-08
5.10578e-09
1.80868e-09
-1.17561e-08
1.14207e-07
-1.04926e-07
1.23594e-08
-1.16933e-08
-2.93683e-10
1.44831e-09
1.02421e-07
-1.028e-07
-2.63672e-09
1.8616e-09
-5.82475e-10
1.57788e-08
1.03789e-07
-1.04425e-07
-1.76488e-08
3.08829e-09
6.45979e-12
3.08692e-08
1.03251e-07
-1.01068e-07
-3.32642e-08
2.05697e-10
2.76934e-11
1.13181e-08
9.79265e-08
-9.72131e-08
-5.0353e-08
-2.93289e-11
1.27705e-08
1.17003e-08
1.38523e-08
5.86983e-11
2.30546e-08
2.32354e-08
-2.97767e-08
-1.63757e-08
-1.96321e-10
0
0
0
0
0
0
0
0
0
0
0
0
0
0
0
0
0
0
0
0
0
0
0
0
0
0
0
0
0
0
0
0
0
0
0
0
3.26452e-10
-5.98412e-08
8.37322e-08
-9.00517e-08
6.63177e-08
-4.83423e-10
-4.98665e-08
-7.49985e-08
4.82534e-08
-7.65606e-09
1.36121e-09
8.29064e-08
-4.16815e-08
6.91216e-08
-3.02837e-09
-8.45174e-08
4.17833e-08
1.83225e-08
-1.27655e-09
-2.90375e-08
9.50888e-08
-1.0013e-07
2.93806e-08
5.9744e-09
1.52153e-09
-1.27874e-08
9.83672e-08
-9.09421e-08
1.27402e-08
-8.89936e-09
-8.57342e-11
3.22082e-09
8.77891e-08
-8.83385e-08
-3.52473e-09
9.3903e-10
-3.64405e-10
1.86989e-08
9.03293e-08
-9.11673e-08
-1.92571e-08
1.76061e-09
8.8639e-11
3.44146e-08
8.97174e-08
-8.89373e-08
-3.48729e-08
-4.10436e-10
1.39186e-10
5.05645e-08
8.82025e-08
-8.79202e-08
-5.03724e-08
-6.13513e-10
-2.30746e-13
6.7957e-08
8.91133e-08
-9.2069e-08
-6.49172e-08
-8.39314e-11
-1.74622e-10
1.9886e-08
8.50619e-08
-7.98104e-08
9.4917e-11
3.87002e-11
-1.40127e-12
1.44461e-10
3.09172e-08
1.88827e-08
3.6462e-08
-2.19524e-08
-3.10315e-08
-2.16796e-08
-3.68379e-08
0
0
0
0
0
0
0
0
0
0
0
0
0
0
0
0
0
0
0
0
0
0
0
0
0
0
0
0
0
0
0
0
8.5203e-11
-8.41822e-08
6.19092e-08
-6.82964e-08
9.14681e-08
-9.83955e-10
4.54459e-10
-6.77386e-08
6.94458e-08
-6.89805e-08
6.84257e-08
-1.60674e-09
-4.79085e-08
-6.11034e-08
4.78682e-08
-6.40646e-09
1.2418e-09
6.63084e-08
5.63986e-08
-2.68833e-09
-4.17138e-08
-6.90588e-08
4.16635e-08
1.53988e-08
-1.16415e-09
-2.9431e-08
7.76919e-08
-8.16398e-08
2.94435e-08
5.09956e-09
1.16971e-09
-1.26103e-08
8.01083e-08
-7.45245e-08
1.25436e-08
-6.6868e-09
-4.3717e-11
3.68199e-09
7.21816e-08
-7.27277e-08
-3.76005e-09
6.67883e-10
-2.24589e-10
1.95273e-08
7.44702e-08
-7.52738e-08
-1.96469e-08
1.14787e-09
1.07172e-10
3.50279e-08
7.42401e-08
-7.3887e-08
-3.5077e-08
-4.11284e-10
1.12692e-10
5.02701e-08
7.35414e-08
-7.31869e-08
-5.02557e-08
-4.81541e-10
6.63383e-11
6.47115e-08
7.28665e-08
-7.23788e-08
-6.49987e-08
-2.66793e-10
1.07685e-10
7.88141e-08
7.11021e-08
-6.87904e-08
-8.0802e-08
-4.31436e-10
-1.87302e-10
2.14903e-08
6.10604e-08
-1.23136e-07
2.04253e-08
-4.75256e-12
1.28071e-10
4.3848e-10
2.918e-08
2.18461e-08
3.22387e-08
-1.33322e-08
-2.20727e-08
-1.27981e-08
-1.52764e-08
0
0
0
0
0
0
0
0
0
0
0
0
0
0
0
0
0
0
0
0
0
0
0
0
0
0
0
0
0
0
-3.46827e-10
-2.30805e-08
1.39273e-08
-6.15521e-08
9.64471e-08
1.71164e-09
-2.33676e-08
-3.59579e-08
-2.43206e-08
1.42868e-08
2.64249e-08
1.58278e-08
9.81388e-11
-8.7567e-08
5.89431e-08
-5.67619e-08
8.55643e-08
-2.76667e-10
4.15947e-10
-6.84104e-08
5.55977e-08
-5.43234e-08
6.82455e-08
-1.52534e-09
-4.78601e-08
-4.79877e-08
4.78629e-08
-5.09065e-09
1.0005e-09
5.20751e-08
4.42841e-08
-2.13025e-09
-4.16426e-08
-5.42175e-08
4.16292e-08
1.20771e-08
-9.272e-10
-2.94449e-08
6.09695e-08
-6.40392e-08
2.9441e-08
4.00082e-09
9.13089e-10
-1.25078e-08
6.28421e-08
-5.84945e-08
1.24535e-08
-5.2064e-09
-2.83192e-11
3.79272e-09
5.66768e-08
-5.71383e-08
-3.81184e-09
5.08968e-10
-1.66432e-10
1.96911e-08
5.85681e-08
-5.92863e-08
-1.96801e-08
8.73663e-10
8.63948e-11
3.50848e-08
5.85549e-08
-5.83418e-08
-3.50731e-08
-3.1119e-10
9.16786e-11
5.02597e-08
5.81097e-08
-5.78261e-08
-5.02582e-08
-3.76887e-10
6.89391e-11
6.51493e-08
5.75437e-08
-5.73014e-08
-6.51814e-08
-2.79199e-10
2.80553e-11
8.04382e-08
5.7194e-08
-5.75754e-08
-7.9972e-08
-1.12867e-10
-2.05935e-10
9.52905e-08
5.92929e-08
-6.17945e-08
-9.29106e-08
3.27622e-10
2.21481e-08
1.39472e-08
-2.09328e-10
-3.66483e-08
3.13566e-10
0
0
0
0
0
0
0
0
0
0
0
0
0
0
0
0
0
0
0
0
0
0
0
0
6.05931e-11
-9.65656e-08
3.87743e-08
-4.08811e-08
9.85935e-08
1.83691e-11
1.00433e-10
-8.50808e-08
4.13198e-08
-4.11737e-08
8.51748e-08
-3.40515e-10
3.33359e-10
-6.81663e-08
4.0731e-08
-3.98821e-08
6.82075e-08
-1.22342e-09
-4.78852e-08
-3.52782e-08
4.79539e-08
-3.78915e-09
7.47426e-10
3.82512e-08
3.2578e-08
-1.56893e-09
-4.16187e-08
-3.99159e-08
4.16003e-08
8.92515e-09
-6.8412e-10
-2.94305e-08
4.48969e-08
-4.7117e-08
2.93767e-08
2.95814e-09
6.68688e-10
-1.22907e-08
4.60371e-08
-4.23683e-08
1.18327e-08
-3.87955e-09
1.54033e-11
3.80817e-09
4.07587e-08
-4.11165e-08
-3.72032e-09
2.54605e-10
-1.00027e-10
1.95958e-08
4.23706e-08
-4.31397e-08
-1.93051e-08
5.78479e-10
8.39247e-11
3.5037e-08
4.27391e-08
-4.26233e-08
-3.49379e-08
-2.98843e-10
9.20969e-11
5.02322e-08
4.24581e-08
-4.22634e-08
-5.01579e-08
-3.61047e-10
7.03392e-11
6.51549e-08
4.20781e-08
-4.19419e-08
-6.50855e-08
-2.7607e-10
2.77503e-11
7.97999e-08
4.1851e-08
-4.17921e-08
-7.97745e-08
-1.11995e-10
-3.1859e-11
9.28571e-08
4.16716e-08
-4.11247e-08
-9.34337e-08
6.15913e-11
4.70466e-10
2.47758e-08
3.88805e-08
-1.06739e-07
3.23032e-11
2.58933e-08
2.48984e-08
2.51695e-08
-7.66371e-09
-8.58735e-09
-8.07456e-09
-9.0552e-09
0
0
0
0
0
0
0
0
0
0
0
0
0
0
0
0
0
0
0
0
0
0
0
0
0
0
0
-4.03705e-09
-1.12685e-07
-2.06493e-08
-7.31667e-10
-9.08833e-11
2.45638e-09
-1.41621e-10
2.92879e-08
3.647e-08
2.84067e-08
4.06318e-08
-1.32344e-11
-9.98552e-08
2.31587e-08
-2.48755e-08
1.01549e-07
3.58453e-11
7.53739e-11
-8.55162e-08
2.56888e-08
-2.59711e-08
8.5985e-08
-2.61774e-10
2.4796e-10
-6.83439e-08
2.59003e-08
-2.54753e-08
6.85786e-08
-9.07649e-10
-4.80639e-08
-2.25756e-08
4.81933e-08
-2.54668e-09
5.10722e-10
2.44821e-08
2.07808e-08
-1.06005e-09
-4.15289e-08
-2.54191e-08
4.1195e-08
6.03235e-09
-5.45198e-10
-2.91765e-08
2.84408e-08
-2.93444e-08
2.83741e-08
2.25127e-09
-2.16449e-08
7.18548e-09
-1.35432e-09
3.24328e-11
-1.0528e-08
2.63094e-08
2.02141e-08
-2.08721e-08
-2.34182e-09
-5.341e-10
2.08638e-10
3.32533e-09
2.27953e-08
4.75059e-11
1.8369e-08
-2.53248e-08
-1.58106e-08
-7.64002e-11
1.47413e-10
3.46741e-08
2.62934e-08
-2.65293e-08
-3.40401e-08
-5.45572e-10
1.64236e-10
4.99976e-08
2.64451e-08
-2.63442e-08
-4.96528e-08
-6.09897e-10
1.11268e-10
6.49377e-08
2.63159e-08
-2.632e-08
-6.46319e-08
-4.12957e-10
5.48855e-11
7.97842e-08
2.6289e-08
-2.61592e-08
-7.97671e-08
-2.01795e-10
3.88258e-11
9.40536e-08
2.58148e-08
-2.50217e-08
-9.47508e-08
-1.34739e-10
1.87206e-10
1.07066e-07
2.33652e-08
-2.07959e-08
-1.09556e-07
-2.6625e-10
0
0
0
0
0
0
0
0
0
0
0
0
0
0
0
0
0
0
0
0
0
0
0
0
0
0
0
0
0
-1.26104e-11
-2.55736e-08
-2.23485e-09
3.15918e-10
2.74566e-08
4.85866e-11
-7.58397e-11
-1.03268e-07
7.99033e-09
-1.00616e-08
1.05322e-07
9.30205e-11
6.37351e-11
-8.64965e-08
1.08422e-08
-1.11663e-08
8.6989e-08
-2.32113e-10
2.22063e-10
-6.89242e-08
1.12952e-08
-1.12758e-08
6.9488e-08
-8.05287e-10
-4.83538e-08
-1.01678e-08
4.91371e-08
-2.13419e-09
4.931e-10
1.10256e-08
8.64273e-09
-9.86589e-09
3.80769e-08
3.61125e-09
-4.22089e-10
-4.00429e-08
1.01095e-08
-7.70189e-09
2.10546e-08
2.11149e-09
-2.54371e-10
-2.53194e-08
-4.69391e-09
4.80184e-09
-1.36438e-08
1.35805e-08
-4.46275e-11
1.7749e-09
1.56213e-08
-1.34781e-08
-3.88675e-09
-3.13217e-11
4.73151e-09
-7.14511e-09
-1.76267e-08
-4.13242e-10
-9.40546e-10
2.13941e-08
9.61244e-09
1.77875e-10
3.28742e-08
-1.02416e-08
-3.1614e-08
-8.08865e-10
4.69918e-10
4.89206e-08
9.71432e-09
-9.86645e-09
-4.73084e-08
-1.93e-09
2.48117e-10
6.40396e-08
1.0294e-08
-1.06555e-08
-6.3005e-08
-9.21249e-10
9.50944e-11
7.96476e-08
1.08639e-08
-1.09071e-08
-7.93565e-08
-3.42952e-10
5.8545e-11
9.54384e-08
1.06953e-08
-9.99825e-09
-9.60216e-08
-1.72347e-10
3.18982e-10
1.11287e-07
7.99463e-09
-1.17618e-07
-5.2755e-11
3.59417e-10
-1.09977e-09
-1.85874e-10
-1.00308e-09
2.18897e-08
-2.26108e-09
1.53165e-10
-1.99941e-08
-1.01836e-10
0
0
0
0
0
0
0
0
0
0
0
0
0
0
0
0
0
-3.44307e-09
-1.47814e-07
-3.27047e-10
-2.63273e-10
2.63296e-10
5.35747e-09
5.63396e-10
3.21988e-08
3.47189e-08
3.22117e-08
4.53137e-08
9.98035e-11
-1.06544e-07
-2.10782e-09
3.15814e-09
1.0558e-07
-1.86984e-10
6.93018e-11
-8.73745e-08
-3.44506e-09
3.46341e-09
8.75315e-08
-2.44634e-10
2.03334e-10
-7.03431e-08
-3.32059e-09
3.03055e-09
7.11741e-08
-7.44281e-10
-5.22128e-08
5.86047e-10
-2.51358e-09
1.7492e-09
5.48756e-08
-2.48452e-09
-3.91862e-08
7.0291e-10
-1.54302e-09
3.23383e-09
4.0511e-08
-3.71857e-09
-2.00432e-08
2.28777e-09
2.08853e-08
2.96855e-10
-9.71382e-11
-3.3295e-09
-1.58037e-08
-1.54452e-09
3.69789e-09
1.36034e-08
4.70056e-11
4.22568e-09
-4.14431e-09
3.5596e-09
-3.64022e-09
-7.57738e-13
1.65641e-08
-1.41086e-09
9.25476e-10
-1.67042e-08
3.67594e-10
2.57915e-10
-1.57376e-09
2.03759e-09
-2.98817e-08
-1.32709e-09
1.80002e-10
3.0565e-08
-5.18027e-09
5.04721e-09
-3.90334e-08
-5.84536e-09
9.85674e-10
4.40261e-08
-4.64253e-09
4.23378e-10
6.14808e-08
4.27791e-09
-5.98568e-08
-1.68277e-09
1.26743e-10
7.8924e-08
-4.04894e-09
3.87022e-09
-7.84133e-08
-4.58784e-10
2.88984e-11
9.61816e-08
-3.66518e-09
3.27893e-09
-9.57146e-08
-1.09663e-10
9.76046e-11
1.20064e-07
-2.21055e-09
-1.83069e-10
-1.17786e-07
1.77717e-11
0
0
0
0
0
0
0
0
0
0
0
0
0
0
0
0
0
0
0
0
0
0
0
0
0
0
0
-3.83013e-11
-2.54972e-08
-3.06983e-09
2.89517e-09
2.57627e-08
-5.24791e-11
3.19475e-11
-1.03577e-07
-1.55679e-08
1.73154e-08
1.01931e-07
-1.33643e-10
5.15776e-11
-8.74676e-08
-1.81435e-08
1.84684e-08
8.72743e-08
-1.8316e-10
1.11059e-10
-7.17958e-08
-1.85345e-08
1.84571e-08
7.21674e-08
-4.05167e-10
2.24962e-10
-5.63599e-08
-1.83029e-08
1.81639e-08
5.71112e-08
-8.37253e-10
2.6493e-10
-4.14114e-08
-1.81774e-08
1.82942e-08
4.20497e-08
-1.02005e-09
-2.28063e-08
1.16301e-10
-1.77416e-08
1.56665e-08
2.54043e-08
-6.39157e-10
-4.84876e-09
1.75926e-08
7.36669e-09
2.65526e-10
1.01206e-09
-2.13881e-08
1.67637e-09
-1.65188e-08
1.72436e-08
-1.85213e-09
-2.57215e-10
-2.91835e-10
2.18636e-08
-2.2251e-08
-6.5439e-11
1.88022e-08
-1.82986e-08
-5.0777e-11
3.33208e-08
-9.35252e-10
-1.94565e-08
1.76816e-08
-3.5101e-08
4.49036e-09
3.9255e-08
1.6183e-08
-3.96127e-08
-1.38866e-09
1.7083e-10
-1.46074e-08
-1.76444e-08
3.49771e-10
5.908e-08
1.83352e-08
-5.87572e-08
-1.36341e-09
1.28333e-10
7.79606e-08
-1.85811e-08
1.85321e-08
-7.75818e-08
-4.58118e-10
1.22475e-11
9.48682e-08
-1.8186e-08
1.73362e-08
-9.3974e-08
-5.65808e-11
6.39341e-11
1.11202e-07
-1.55301e-08
-1.09237e-07
9.35872e-11
3.97134e-09
2.91296e-09
4.69782e-09
1.8255e-09
2.20235e-08
-3.14185e-09
3.94198e-12
-1.92559e-08
-9.76356e-11
0
0
0
0
0
0
0
0
0
0
0
0
-4.21813e-09
-1.1258e-07
3.14212e-08
1.01949e-08
-1.13033e-10
-3.12771e-10
4.87169e-11
3.55694e-08
3.91751e-08
-5.34611e-11
-1.00342e-07
-3.16152e-08
3.29338e-08
9.91177e-08
-4.12088e-11
2.49428e-11
-8.70186e-08
-3.36378e-08
3.39464e-08
8.67783e-08
-9.32336e-11
6.26421e-11
-7.23624e-08
-3.40715e-08
3.41462e-08
7.246e-08
-2.34892e-10
1.03873e-10
-5.74725e-08
-3.42325e-08
3.43538e-08
5.76469e-08
-3.99548e-10
1.11508e-10
-4.24062e-08
-3.45094e-08
3.46401e-08
4.25714e-08
-4.07401e-10
1.03462e-10
-2.69266e-08
-3.4645e-08
3.46567e-08
2.74374e-08
-6.25958e-10
-1.00317e-08
1.60481e-12
-3.34146e-08
3.1901e-08
1.11548e-08
3.88949e-10
2.81258e-09
2.82667e-10
-3.14653e-08
3.32128e-08
-3.49799e-09
-1.34473e-09
1.34846e-10
2.05399e-08
-3.71176e-08
3.85287e-08
-2.11372e-08
-9.48619e-10
-1.21156e-09
3.5596e-08
-3.68419e-08
3.278e-08
-3.57075e-08
5.38502e-09
3.96497e-08
2.89482e-08
-3.95967e-08
-2.5088e-09
2.49571e-10
-2.67419e-08
-3.13709e-08
4.71869e-10
5.8562e-08
3.2672e-08
-5.84336e-08
-1.90131e-09
1.64762e-10
7.72987e-08
-3.33034e-08
3.35279e-08
-7.71066e-08
-5.81329e-10
5.65988e-11
9.3132e-08
-3.34124e-08
3.28284e-08
-9.24539e-08
-1.50822e-10
2.69355e-10
1.06962e-07
-3.15835e-08
3.14283e-08
-1.07048e-07
-2.85784e-11
0
0
0
0
0
0
0
0
0
0
0
0
0
0
0
0
0
0
0
0
0
0
0
0
0
0
0
-2.71087e-11
-9.69644e-08
-1.1376e-08
5.0477e-08
9.6684e-08
-1.60402e-10
-1.28073e-08
-1.18841e-08
-1.39418e-08
9.25288e-13
-8.67021e-08
-5.02022e-08
4.97571e-08
8.71801e-08
-3.38024e-11
4.92127e-11
-7.25289e-08
-4.9607e-08
4.96736e-08
7.26066e-08
-1.93464e-10
8.30719e-11
-5.77262e-08
-4.98452e-08
5.00735e-08
5.77528e-08
-3.38027e-10
8.25955e-11
-4.26441e-08
-5.03107e-08
5.05099e-08
4.2675e-08
-3.12648e-10
9.83844e-11
-2.7603e-08
-5.06835e-08
5.12797e-08
2.7652e-08
-7.43505e-10
-2.39298e-10
-1.14887e-08
-5.05947e-08
4.92995e-08
1.15791e-08
1.44417e-09
4.53718e-10
3.77558e-09
-4.89e-08
5.05571e-08
-3.89118e-09
-1.99527e-09
1.94178e-10
2.13254e-08
-5.44589e-08
5.5551e-08
-2.1387e-08
-1.22461e-09
-1.70325e-09
3.57312e-08
-5.28949e-08
4.70322e-08
-3.57331e-08
7.56782e-09
3.95571e-08
4.16119e-08
-3.95482e-08
-3.57078e-09
3.55827e-10
-3.84059e-08
-4.51436e-08
6.4454e-10
5.83727e-08
4.71061e-08
-5.83736e-08
-2.6062e-09
2.12932e-10
7.70814e-08
-4.81912e-08
4.89386e-08
-7.72946e-08
-7.47253e-10
1.40606e-10
9.18751e-08
-4.96738e-08
5.01389e-08
-9.21099e-08
-3.70932e-10
2.48249e-08
-1.1369e-08
1.71085e-10
1.23017e-08
-2.58384e-08
-9.03062e-11
0
0
0
0
0
0
0
0
0
0
0
0
0
0
0
0
0
0
0
0
0
0
0
0
0
0
0
0
0
0
0
-1.03241e-10
-2.30584e-08
-2.29978e-08
1.63544e-08
2.97661e-08
3.89924e-11
7.10054e-11
-8.91566e-08
-6.83182e-08
6.47616e-08
9.2888e-08
-2.45864e-10
5.20636e-11
-7.2675e-08
-6.44594e-08
6.48405e-08
7.24465e-08
-2.04601e-10
9.10842e-11
-5.77432e-08
-6.52039e-08
6.55365e-08
5.77006e-08
-3.81017e-10
9.70043e-11
-4.26857e-08
-6.58583e-08
6.61344e-08
4.26893e-08
-3.76622e-10
1.19189e-10
-2.76555e-08
-6.64034e-08
6.72714e-08
2.76153e-08
-9.46941e-10
-3.36442e-10
-1.15868e-08
-6.6506e-08
6.49181e-08
1.15503e-08
1.96088e-09
5.86304e-10
3.93862e-09
-6.43941e-08
6.64421e-08
-3.98338e-09
-2.58955e-09
2.50293e-10
2.14056e-08
-7.13455e-08
7.26937e-08
-2.1411e-08
-1.59311e-09
-2.22174e-09
3.57315e-08
-6.91966e-08
6.15323e-08
-3.57394e-08
9.89386e-09
3.95543e-08
5.44594e-08
-3.95524e-08
-4.66639e-09
4.61596e-10
-5.02565e-08
-5.90679e-08
7.97795e-10
5.84007e-08
6.15222e-08
-5.8408e-08
-3.24478e-09
1.85225e-10
7.78707e-08
-6.26635e-08
6.36897e-08
-7.84476e-08
-6.34557e-10
-6.03256e-10
9.46637e-08
-6.72348e-08
-1.24419e-07
1.05217e-08
3.37403e-08
1.66439e-08
1.73437e-08
1.93433e-08
2.21521e-08
-2.30177e-08
-6.53762e-11
2.66959e-10
0
0
0
0
0
0
0
0
0
0
0
0
0
0
0
0
0
0
0
0
0
0
0
1.53934e-10
-8.51265e-08
-1.99075e-08
7.97241e-08
1.94875e-10
-9.0774e-12
1.28722e-11
-1.55837e-10
-3.12251e-08
-1.88311e-08
-3.62184e-08
2.18557e-08
3.13215e-08
2.16819e-08
3.65285e-08
3.05273e-11
-7.1291e-08
-7.87624e-08
8.09277e-08
6.91893e-08
-9.40523e-11
9.76446e-11
-5.77022e-08
-8.08407e-08
8.07755e-08
5.80843e-08
-4.1456e-10
1.22078e-10
-4.26781e-08
-8.10835e-08
8.15426e-08
4.26095e-08
-5.1252e-10
1.1481e-10
-2.75019e-08
-8.2042e-08
8.32997e-08
2.72095e-08
-1.08015e-09
-4.41442e-10
-1.14562e-08
-8.24803e-08
8.06138e-08
1.12432e-08
2.52097e-09
7.44288e-10
4.05857e-09
-8.00762e-08
8.27881e-08
-4.18447e-09
-3.33028e-09
3.41396e-10
2.14133e-08
-8.92041e-08
9.08837e-08
-2.13447e-08
-2.08959e-09
-2.68518e-09
3.57534e-08
-8.64399e-08
7.68177e-08
-3.57573e-08
1.23113e-08
3.95021e-08
6.79491e-08
-3.93277e-08
-5.99175e-09
5.96345e-10
-6.27281e-08
-7.39825e-08
8.67522e-10
5.84337e-08
7.75027e-08
-5.92297e-08
-3.59165e-09
1.28954e-10
7.69404e-08
-7.72689e-08
7.90642e-08
-7.85533e-08
-3.11392e-10
2.14505e-08
-1.98994e-08
2.78909e-11
2.85426e-08
-3.0104e-08
-1.74955e-11
0
0
0
0
0
0
0
0
0
0
0
0
0
0
0
0
0
0
0
0
0
0
0
0
0
0
0
0
0
0
0
2.37909e-10
-6.24848e-08
-2.15447e-08
1.27592e-07
-2.46546e-08
-1.23982e-11
7.3642e-11
-1.69873e-10
-2.91185e-08
-2.20708e-08
-3.26305e-08
1.48435e-08
2.217e-08
1.30661e-08
1.47034e-08
1.6257e-10
-5.96795e-08
-9.60124e-08
9.37392e-08
6.19676e-08
-1.77494e-10
1.26874e-10
-4.23088e-08
-9.42426e-08
9.56924e-08
4.1285e-08
-5.52886e-10
-8.98805e-11
-2.65819e-08
-9.69987e-08
9.84949e-08
2.53583e-08
-1.82737e-10
-6.4277e-10
-1.08055e-08
-9.75555e-08
9.5568e-08
9.89668e-09
3.53912e-09
8.75448e-10
4.35771e-09
-9.49944e-08
9.84098e-08
-4.47444e-09
-4.17413e-09
4.72839e-10
2.0976e-08
-1.06644e-07
1.07731e-07
-1.96488e-08
-2.88754e-09
9.06018e-08
-3.42178e-08
1.2318e-08
-2.4594e-09
3.55439e-08
-1.01787e-07
3.87273e-08
-7.31976e-08
8.06906e-08
-8.40067e-09
1.12573e-09
-1.10435e-08
-1.00729e-08
-1.08049e-08
-7.02402e-09
-9.03837e-08
1.46886e-09
6.35773e-08
1.24952e-07
-1.30728e-08
-1.64178e-08
-1.82872e-08
-3.43256e-08
-1.75115e-08
1.98798e-08
-2.14578e-08
5.82466e-11
3.01128e-08
-2.8622e-08
2.90418e-11
0
0
0
0
0
0
0
0
0
0
0
0
0
0
0
0
0
0
0
0
0
0
0
0
0
0
0
0
0
0
0
0
0
0
-1.4033e-08
-2.22002e-08
1.31458e-10
3.68745e-08
-3.43538e-10
-2.52304e-10
-3.82851e-08
-2.4852e-08
1.07338e-07
-6.49798e-10
-2.59766e-08
-2.51251e-08
-2.53793e-08
7.5363e-09
8.57262e-09
8.02155e-09
9.05139e-09
-4.44419e-10
-2.34384e-08
-1.06481e-07
1.08366e-07
2.09349e-08
1.06322e-09
-6.8339e-10
-7.79351e-09
-1.08684e-07
1.13081e-07
2.20293e-09
-5.27617e-10
1.13038e-09
1.18254e-10
1.15624e-09
4.76334e-10
4.07477e-09
-1.14105e-07
1.11243e-07
-3.42248e-10
-1.34667e-09
-7.13587e-11
1.72996e-08
-1.07702e-07
1.0373e-07
7.34217e-10
-4.83694e-09
-2.83008e-09
-4.90241e-09
-1.4212e-09
2.89978e-08
5.02023e-09
-2.08246e-09
-9.65709e-08
2.40781e-08
2.07139e-08
2.62168e-08
2.69105e-08
-1.00837e-08
-7.12034e-09
-1.01265e-08
-5.95333e-09
9.622e-09
-2.23043e-08
2.46469e-11
2.39411e-08
-3.03837e-10
-1.09796e-08
-2.215e-08
2.3074e-08
-2.90105e-11
-2.44386e-10
0
0
0
0
0
0
0
0
0
0
0
0
0
0
0
0
0
0
0
0
0
0
0
0
0
0
0
0
0
0
0
0
0
0
0
0
0
0
0
0
0
0
0
0
0
2.24516e-09
-2.14903e-08
-2.13179e-10
1.98438e-08
-8.90423e-11
0
0
0
0
0
0
0
3.12516e-09
-2.17733e-08
-1.40229e-11
1.90768e-08
4.80275e-11
0
0
0
0
0
0
0
0
0
0
0
0
0
0
0
0
0
0
0
0
0
0
0
0
0
0
0
0
0
0
0
0
0
0
0
0
0
0
0
0
0
0
0
0
0
0
0
0
0
0
0
0
0
0
0
0
0
0
0
0
0
0
0
0
0
0
0
0
0
0
0
0
0
0
0
0
0
0
0
0
0
0
0
0
0
0
0
0
0
0
0
0
0
0
0
0
0
0
0
0
0
0
0
0
0
0
0
0
0
0
0
0
0
0
0
0
0
0
0
0
0
0
0
0
0
0
0
0
0
0
0
0
0
0
0
0
0
0
0
0
0
0
0
0
0
0
0
0
0
0
0
0
0
0
0
0
0
0
0
0
0
0
0
0
0
-9.13953e-08
6.51921e-08
-3.24604e-11
1.47889e-08
3.41428e-09
1.04743e-07
-1.182e-07
1.66097e-08
-1.42407e-10
-2.11036e-09
1.17136e-07
-1.20842e-07
2.35625e-09
-2.63506e-09
3.42072e-09
1.25604e-07
-1.26083e-07
4.55789e-10
2.64131e-09
-1.50395e-09
1.24158e-07
-1.18521e-07
-7.78793e-09
2.49157e-09
-4.92168e-10
1.0738e-07
-5.22982e-10
-8.95805e-08
-1.72777e-08
-2.94804e-10
0
0
0
0
0
0
0
0
0
0
0
0
0
0
0
0
0
0
0
0
0
0
0
0
0
0
0
0
0
0
0
0
0
0
0
0
0
0
1.27094e-08
-9.77924e-08
4.81586e-08
-2.99302e-09
-7.59977e-08
1.15915e-07
-7.94504e-08
4.00838e-09
2.70213e-09
4.94216e-08
9.71228e-08
-1.07041e-07
-4.34563e-09
6.03367e-09
-6.75867e-09
1.13995e-07
-1.24081e-07
-1.71367e-08
2.21021e-08
-9.05136e-09
1.44819e-07
-5.31747e-10
4.63878e-08
-1.15002e-07
-5.0247e-08
-2.54252e-08
3.7816e-10
4.73531e-08
1.04907e-07
-9.70519e-08
-5.41942e-08
-1.39194e-09
3.60036e-09
1.20505e-07
-1.23749e-07
-8.14609e-10
0
0
0
0
0
0
0
0
0
0
0
0
0
0
0
0
0
0
0
0
0
0
0
0
0
0
5.35913e-11
-1.14178e-07
1.13983e-07
4.47001e-11
1.15062e-09
-5.32425e-08
8.74572e-08
-9.57892e-08
6.15149e-08
-1.09099e-09
1.31605e-08
-5.36545e-08
-1.02873e-07
5.45554e-08
-4.14873e-09
9.29606e-08
-4.24599e-09
3.04024e-08
-5.01034e-08
3.93927e-09
3.03771e-09
-3.53197e-09
6.74174e-08
-7.78953e-08
-2.98254e-09
1.64149e-08
-9.2867e-08
-1.701e-08
-4.09993e-09
8.44708e-08
1.06302e-07
1.53051e-10
4.49773e-08
-9.18682e-08
-4.38273e-08
-1.57369e-08
1.73373e-09
5.48339e-08
9.18396e-08
-9.18365e-08
-5.33616e-08
-3.20921e-09
4.01716e-10
7.09515e-08
9.43076e-08
-9.89551e-08
-6.59948e-08
-7.10879e-10
-1.11182e-10
9.87386e-08
-1.14524e-07
-7.32828e-08
-9.14692e-11
8.92713e-08
0
0
0
0
0
0
0
0
0
0
0
0
0
0
0
0
0
0
0
0
0
0
0
0
2.01085e-10
-8.73204e-08
5.49779e-08
-6.4326e-08
9.66222e-08
-1.54834e-10
2.54014e-09
-6.5717e-08
6.87809e-08
-7.1384e-08
6.77697e-08
-1.9897e-09
9.92225e-09
-5.48422e-08
-8.21287e-08
5.50551e-08
-2.63943e-09
7.4633e-08
2.29917e-08
-3.75052e-09
-3.89617e-08
3.67709e-09
-2.69763e-09
3.03642e-09
5.28191e-08
-6.13559e-08
-3.05893e-09
1.74886e-08
-7.44028e-08
-1.77176e-08
-2.92724e-09
6.68979e-08
8.69457e-08
-5.76646e-11
4.34025e-08
-7.48836e-08
-4.31532e-08
-1.22538e-08
1.2348e-09
7.53196e-08
5.21762e-08
-7.50587e-08
-5.16142e-08
-2.05769e-09
5.95262e-10
6.5593e-08
7.46553e-08
-7.36104e-08
-6.61594e-08
-1.07375e-09
3.18004e-10
7.93486e-08
7.05923e-08
-6.57397e-08
-8.42347e-08
-2.84488e-10
-1.17676e-09
9.83469e-08
-1.52032e-07
-5.38245e-10
5.63454e-08
0
0
0
0
0
0
0
0
0
0
0
0
0
0
0
0
0
0
0
0
0
0
0
-2.98742e-09
-1.19696e-07
9.61962e-08
-6.87799e-08
9.51273e-08
1.39777e-10
5.02441e-10
6.30203e-08
-9.11439e-08
-5.8718e-08
8.68957e-08
-5.56426e-10
2.63317e-09
-6.79332e-08
5.66399e-08
-5.65232e-08
6.74104e-08
-2.22708e-09
7.77095e-09
-5.50905e-08
-6.41335e-08
5.50187e-08
-2.00784e-09
5.84423e-08
1.79248e-08
-3.65298e-09
-3.04221e-08
3.63533e-09
-2.09935e-09
3.07203e-09
4.12533e-08
-4.79389e-08
-3.09017e-09
1.78045e-08
-5.83938e-08
-1.78431e-08
-2.28019e-09
5.23412e-08
6.84775e-08
-1.31526e-10
4.30121e-08
-5.88959e-08
-4.29524e-08
-9.50972e-09
9.13464e-10
5.91483e-08
5.13559e-08
-5.87306e-08
-5.12333e-08
-1.45373e-09
6.3774e-10
6.63834e-08
5.82146e-08
-5.78432e-08
-6.62479e-08
-1.14466e-09
2.67195e-10
8.3589e-08
5.8005e-08
-5.96288e-08
-8.18676e-08
-3.64795e-10
-1.74477e-10
1.00838e-07
-6.86966e-08
-9.54641e-08
7.81442e-11
6.34188e-08
9.01373e-09
9.61183e-08
-9.54206e-08
4.35079e-10
-1.49707e-09
-8.80591e-09
0
0
0
0
0
0
0
0
0
0
0
0
0
0
0
0
-1.1551e-08
-7.88177e-08
9.06756e-08
3.42638e-10
8.58702e-11
-9.97529e-08
4.4419e-08
-4.29575e-08
9.83639e-08
-1.58417e-10
5.56092e-10
-8.49288e-08
4.25084e-08
-4.1842e-08
8.4355e-08
-6.48743e-10
2.13779e-09
-6.70176e-08
4.13837e-08