/*--------------------------------*- C++ -*----------------------------------*\
| =========                 |                                                 |
| \\      /  F ield         | OpenFOAM: The Open Source CFD Toolbox           |
|  \\    /   O peration     | Version:  2112                                  |
|   \\  /    A nd           | Website:  www.openfoam.com                      |
|    \\/     M anipulation  |                                                 |
\*---------------------------------------------------------------------------*/
FoamFile
{
    version     2.0;
    format      ascii;
    arch        "LSB;label=32;scalar=64";
    class       volScalarField;
    location    "0.225";
    object      nut;
}
// * * * * * * * * * * * * * * * * * * * * * * * * * * * * * * * * * * * * * //

dimensions      [0 2 -1 0 0 0 0];

internalField   nonuniform List<scalar> 
167834
(
2.22734e-07
8.8539e-07
5.86551e-07
5.01441e-07
4.50818e-07
6.45484e-07
8.25965e-07
1.08906e-06
8.66097e-07
7.6231e-07
7.00789e-07
6.50311e-07
6.17101e-07
4.831e-07
5.0584e-07
6.60142e-07
7.19787e-07
7.65561e-07
8.11696e-07
8.20627e-07
7.71202e-07
7.38769e-07
7.12053e-07
6.86614e-07
6.51535e-07
5.53247e-07
3.91943e-07
5.03267e-07
6.81392e-07
7.21726e-07
7.53503e-07
7.77161e-07
7.99406e-07
8.045e-07
7.81545e-07
7.56402e-07
7.33532e-07
7.12091e-07
6.90057e-07
6.6303e-07
6.11981e-07
4.24252e-07
6.69558e-07
7.26985e-07
7.4875e-07
7.63461e-07
7.7685e-07
7.89557e-07
7.89867e-07
7.76833e-07
7.60903e-07
7.45299e-07
7.28921e-07
7.11642e-07
6.93344e-07
6.63684e-07
5.46712e-07
5.83607e-07
7.12738e-07
7.46378e-07
7.5275e-07
7.49503e-07
7.50276e-07
7.58346e-07
7.63872e-07
7.64214e-07
7.61598e-07
7.56364e-07
7.46829e-07
7.33258e-07
7.17186e-07
6.96574e-07
6.46647e-07
4.11459e-07
6.62793e-07
7.33099e-07
7.54061e-07
7.49299e-07
7.31976e-07
7.20645e-07
7.26687e-07
7.39619e-07
7.51221e-07
7.60554e-07
7.67345e-07
7.67094e-07
7.58665e-07
7.43963e-07
7.24049e-07
6.86895e-07
4.96078e-07
4.44962e-07
6.89627e-07
7.44773e-07
7.60132e-07
7.52506e-07
7.2853e-07
7.05483e-07
7.03116e-07
7.15851e-07
7.33571e-07
7.52676e-07
7.71138e-07
7.81763e-07
7.80203e-07
7.68115e-07
7.48165e-07
7.15274e-07
5.89004e-07
5.02704e-07
7.09058e-07
7.49746e-07
7.65543e-07
7.63107e-07
7.43755e-07
7.14702e-07
6.92642e-07
6.89302e-07
7.09591e-07
7.38709e-07
7.65033e-07
7.84064e-07
7.90269e-07
7.83134e-07
7.65135e-07
7.354e-07
6.66166e-07
5.01975e-07
7.08132e-07
7.48132e-07
7.67008e-07
7.7187e-07
7.61034e-07
7.35847e-07
7.05136e-07
6.78809e-07
6.95299e-07
7.25843e-07
7.51885e-07
7.74071e-07
7.87124e-07
7.86804e-07
7.73333e-07
7.45158e-07
6.75431e-07
4.90235e-07
6.95446e-07
7.39405e-07
7.60773e-07
7.71413e-07
7.69254e-07
7.5286e-07
7.28521e-07
7.085e-07
7.07223e-07
7.19514e-07
7.34963e-07
7.5551e-07
7.74285e-07
7.81596e-07
7.73762e-07
7.45949e-07
6.689e-07
6.62318e-07
7.23495e-07
7.4607e-07
7.59716e-07
7.6488e-07
7.59654e-07
7.46605e-07
7.33799e-07
7.2547e-07
7.20342e-07
7.19921e-07
7.33502e-07
7.58103e-07
7.72501e-07
7.68344e-07
7.35512e-07
5.4873e-07
6.3318e-07
7.02303e-07
7.27131e-07
7.41958e-07
7.51929e-07
7.55851e-07
7.53394e-07
7.46219e-07
7.35455e-07
7.21579e-07
7.10714e-07
7.19228e-07
7.4662e-07
7.63328e-07
7.57897e-07
7.15789e-07
5.11127e-07
4.92422e-07
6.73034e-07
7.10634e-07
7.27417e-07
7.39603e-07
7.48101e-07
7.51002e-07
7.46905e-07
7.354e-07
7.18973e-07
7.0791e-07
7.1956e-07
7.42529e-07
7.53044e-07
7.36792e-07
6.68563e-07
5.74497e-07
6.8948e-07
7.1589e-07
7.29603e-07
7.39043e-07
7.4342e-07
7.40839e-07
7.31203e-07
7.18577e-07
7.13994e-07
7.24862e-07
7.37112e-07
7.32842e-07
6.90232e-07
4.61481e-07
4.1111e-07
6.36577e-07
6.90208e-07
7.1491e-07
7.26621e-07
7.31887e-07
7.31572e-07
7.26587e-07
7.20356e-07
7.18247e-07
7.20513e-07
7.14886e-07
6.81596e-07
5.67947e-07
5.71221e-07
6.68606e-07
6.96008e-07
7.08393e-07
7.1373e-07
7.12054e-07
7.06359e-07
6.95587e-07
6.81764e-07
6.43965e-07
4.44527e-07
4.27304e-07
5.02365e-07
5.8556e-07
6.51397e-07
6.51214e-07
6.38941e-07
5.15617e-07
4.79456e-07
5.89028e-07
7.93633e-07
7.22723e-07
5.54291e-07
3.14904e-07
8.71382e-07
1.30643e-06
4.28001e-07
1.22336e-06
1.76774e-06
1.75516e-06
1.60249e-06
1.33594e-06
6.75536e-07
8.13096e-07
1.54726e-06
1.8962e-06
1.88964e-06
1.2528e-06
1.58334e-06
1.91984e-06
1.89692e-06
1.84112e-06
1.7901e-06
1.74968e-06
1.21241e-06
3.17605e-07
9.22378e-07
1.69761e-06
1.90976e-06
1.96388e-06
1.96588e-06
1.75003e-06
1.90137e-06
1.93874e-06
1.92702e-06
1.92118e-06
1.91541e-06
1.83779e-06
1.84836e-06
1.49313e-06
3.62549e-07
7.97002e-07
1.70477e-06
1.83836e-06
1.93323e-06
1.92913e-06
1.92261e-06
1.87995e-06
1.91072e-06
1.90569e-06
1.90817e-06
1.91321e-06
1.91548e-06
1.91286e-06
1.84691e-06
1.85856e-06
1.44671e-06
2.80726e-07
1.53887e-06
1.88534e-06
1.91782e-06
1.89e-06
1.84982e-06
1.83124e-06
1.83992e-06
1.85136e-06
1.86886e-06
1.89195e-06
1.9087e-06
1.91693e-06
1.91834e-06
1.91379e-06
1.84817e-06
1.81585e-06
9.51139e-07
9.5953e-07
1.81996e-06
1.91887e-06
1.89542e-06
1.84706e-06
1.80826e-06
1.79233e-06
1.80474e-06
1.82904e-06
1.86135e-06
1.89324e-06
1.91477e-06
1.92621e-06
1.93025e-06
1.92891e-06
1.91986e-06
1.83378e-06
1.62899e-06
2.77635e-07
1.50665e-06
1.81054e-06
1.91936e-06
1.88117e-06
1.83448e-06
1.80424e-06
1.79432e-06
1.809e-06
1.83557e-06
1.87101e-06
1.90102e-06
1.92094e-06
1.93609e-06
1.9456e-06
1.94808e-06
1.94183e-06
1.92377e-06
1.82005e-06
8.08428e-07
3.85003e-07
1.68924e-06
1.84859e-06
1.91854e-06
1.883e-06
1.84283e-06
1.81649e-06
1.80985e-06
1.82372e-06
1.84042e-06
1.8714e-06
1.89764e-06
1.90457e-06
1.91852e-06
1.9333e-06
1.94247e-06
1.9441e-06
1.93204e-06
1.88018e-06
1.19884e-06
6.30884e-07
1.7616e-06
1.86926e-06
1.92152e-06
1.89663e-06
1.86651e-06
1.83958e-06
1.83282e-06
1.84092e-06
1.82288e-06
1.8286e-06
1.87061e-06
1.88021e-06
1.8866e-06
1.90579e-06
1.92148e-06
1.93191e-06
1.93292e-06
1.89685e-06
1.40592e-06
6.56629e-07
1.76852e-06
1.86935e-06
1.92971e-06
1.91618e-06
1.8977e-06
1.87442e-06
1.86296e-06
1.86466e-06
1.82664e-06
1.81513e-06
1.84196e-06
1.85269e-06
1.85225e-06
1.87388e-06
1.89689e-06
1.91747e-06
1.93116e-06
1.89309e-06
1.41987e-06
5.33934e-07
1.74584e-06
1.86407e-06
1.93831e-06
1.93671e-06
1.92716e-06
1.9105e-06
1.89416e-06
1.89208e-06
1.8693e-06
1.83762e-06
1.83605e-06
1.82914e-06
1.82587e-06
1.84549e-06
1.87447e-06
1.90579e-06
1.92816e-06
1.88106e-06
1.3058e-06
1.646e-06
1.83879e-06
1.93868e-06
1.94836e-06
1.94644e-06
1.93679e-06
1.92255e-06
1.90862e-06
1.89139e-06
1.85909e-06
1.83289e-06
1.81235e-06
1.80816e-06
1.82817e-06
1.86182e-06
1.90208e-06
1.92245e-06
1.83885e-06
1.12923e-06
1.34568e-06
1.78918e-06
1.92263e-06
1.93393e-06
1.93683e-06
1.93341e-06
1.9244e-06
1.9096e-06
1.88624e-06
1.85256e-06
1.82227e-06
1.80019e-06
1.79844e-06
1.82281e-06
1.86291e-06
1.90747e-06
1.86233e-06
1.70474e-06
5.85892e-07
6.84028e-07
1.73862e-06
1.83686e-06
1.91356e-06
1.919e-06
1.91809e-06
1.91185e-06
1.89773e-06
1.87351e-06
1.8427e-06
1.81591e-06
1.79784e-06
1.80213e-06
1.83461e-06
1.87977e-06
1.91561e-06
1.80501e-06
1.32452e-06
1.16291e-06
1.83586e-06
1.84277e-06
1.90801e-06
1.91018e-06
1.90549e-06
1.89221e-06
1.86929e-06
1.84359e-06
1.82289e-06
1.81261e-06
1.82633e-06
1.86436e-06
1.90311e-06
1.82832e-06
1.59945e-06
4.39977e-07
3.17726e-07
1.4486e-06
1.8435e-06
1.83894e-06
1.90286e-06
1.90307e-06
1.89488e-06
1.87874e-06
1.86167e-06
1.85041e-06
1.84989e-06
1.86825e-06
1.89465e-06
1.82166e-06
1.67557e-06
8.40018e-07
3.82844e-07
1.39398e-06
1.79686e-06
1.81605e-06
1.89533e-06
1.89661e-06
1.8918e-06
1.88603e-06
1.88282e-06
1.88541e-06
1.82886e-06
1.85538e-06
1.62696e-06
8.49426e-07
8.77085e-07
1.59586e-06
1.79946e-06
1.85934e-06
1.87057e-06
1.86588e-06
1.86029e-06
1.82566e-06
1.7038e-06
1.33959e-06
4.14292e-07
2.71574e-07
8.0065e-07
1.18136e-06
1.38803e-06
1.40191e-06
1.30682e-06
1.1495e-06
5.4763e-07
3.9936e-07
7.25114e-07
6.91649e-07
5.42335e-07
3.43657e-07
8.97395e-07
1.73637e-06
9.62996e-07
1.83697e-06
1.91934e-06
1.88189e-06
1.75621e-06
1.43737e-06
7.39444e-07
8.35251e-07
1.60953e-06
1.89061e-06
2.03448e-06
1.79891e-06
1.8128e-06
1.81117e-06
1.83951e-06
1.85896e-06
1.98308e-06
1.87296e-06
1.24518e-06
3.02687e-07
9.83722e-07
1.84385e-06
1.96927e-06
2.03263e-06
1.62561e-06
1.55656e-06
1.59993e-06
1.65275e-06
1.71738e-06
1.79044e-06
1.854e-06
1.88762e-06
1.96133e-06
1.59955e-06
3.85981e-07
8.35413e-07
1.84509e-06
1.94226e-06
2.01328e-06
2.06637e-06
1.53412e-06
1.46242e-06
1.50229e-06
1.54461e-06
1.61372e-06
1.70906e-06
1.81114e-06
1.88214e-06
1.91472e-06
1.96921e-06
1.53233e-06
3.34853e-07
1.6352e-06
1.93093e-06
2.0052e-06
2.01969e-06
2.06809e-06
1.52373e-06
1.46168e-06
1.50722e-06
1.55541e-06
1.62018e-06
1.70139e-06
1.79337e-06
1.87952e-06
1.93708e-06
1.956e-06
1.93636e-06
1.01888e-06
1.02753e-06
1.87007e-06
2.0029e-06
2.0113e-06
2.02261e-06
2.05754e-06
1.51696e-06
1.46831e-06
1.52955e-06
1.59239e-06
1.66676e-06
1.74412e-06
1.81735e-06
1.88935e-06
1.95248e-06
1.98449e-06
1.9952e-06
1.76131e-06
2.99918e-07
1.62273e-06
1.92121e-06
2.01004e-06
2.01615e-06
2.02393e-06
2.04295e-06
1.52047e-06
1.49994e-06
1.57902e-06
1.65508e-06
1.73644e-06
1.80789e-06
1.8659e-06
1.91908e-06
1.97093e-06
2.00194e-06
2.00427e-06
1.96835e-06
8.09273e-07
3.13274e-07
1.78028e-06
1.99752e-06
2.01484e-06
2.01946e-06
2.0239e-06
2.03043e-06
1.56923e-06
1.57851e-06
1.60238e-06
1.6178e-06
1.75526e-06
1.86412e-06
1.92143e-06
1.95725e-06
1.99215e-06
2.01419e-06
2.01045e-06
1.98646e-06
1.17117e-06
6.43517e-07
1.88016e-06
1.99745e-06
2.01698e-06
2.01995e-06
2.02021e-06
2.02169e-06
1.75083e-06
1.67748e-06
1.0903e-06
1.02788e-06
1.47066e-06
1.87703e-06
1.97252e-06
1.9928e-06
2.01075e-06
2.02249e-06
2.01916e-06
2.00457e-06
1.47049e-06
6.62529e-07
1.8848e-06
1.99802e-06
2.01484e-06
2.01482e-06
2.00812e-06
1.99949e-06
1.96438e-06
1.70608e-06
1.0027e-06
9.21668e-07
1.31265e-06
1.88092e-06
2.01351e-06
2.01798e-06
2.02182e-06
2.02536e-06
2.02219e-06
1.94264e-06
1.47499e-06
5.6385e-07
1.87686e-06
1.99375e-06
2.00761e-06
2.0029e-06
1.98587e-06
1.96203e-06
1.91392e-06
1.75854e-06
1.45015e-06
1.35976e-06
1.58038e-06
1.5884e-06
1.96204e-06
2.03183e-06
2.02479e-06
2.02402e-06
2.02238e-06
2.01542e-06
1.36311e-06
1.76401e-06
1.9886e-06
1.99538e-06
1.98637e-06
1.95744e-06
1.91791e-06
1.86916e-06
1.80245e-06
1.72324e-06
1.63371e-06
1.58512e-06
1.48039e-06
1.9249e-06
2.03911e-06
2.02349e-06
2.02073e-06
2.01863e-06
1.92482e-06
1.10992e-06
1.46675e-06
2.00682e-06
1.97876e-06
1.9691e-06
1.93152e-06
1.87539e-06
1.81004e-06
1.73524e-06
1.65599e-06
1.57903e-06
1.52903e-06
1.44793e-06
1.93724e-06
2.04362e-06
2.02066e-06
2.01642e-06
2.01283e-06
1.85711e-06
6.63207e-07
7.68026e-07
1.86611e-06
1.9625e-06
1.95288e-06
1.9153e-06
1.84824e-06
1.76465e-06
1.67951e-06
1.60205e-06
1.5388e-06
1.50427e-06
1.44612e-06
1.96615e-06
2.0449e-06
2.01656e-06
2.00911e-06
2.0035e-06
1.44049e-06
1.18496e-06
1.94947e-06
1.93298e-06
1.90824e-06
1.84767e-06
1.75211e-06
1.65383e-06
1.57398e-06
1.51971e-06
1.49358e-06
1.45037e-06
1.9924e-06
2.04214e-06
2.01101e-06
2.00463e-06
1.69634e-06
4.796e-07
3.22246e-07
1.56308e-06
1.95558e-06
1.89869e-06
1.87086e-06
1.79545e-06
1.70094e-06
1.61329e-06
1.5522e-06
1.52156e-06
1.48787e-06
2.01377e-06
2.03225e-06
2.0067e-06
1.82948e-06
8.62715e-07
4.08016e-07
1.48413e-06
1.9134e-06
1.89712e-06
1.85514e-06
1.80729e-06
1.76178e-06
1.72335e-06
1.6905e-06
1.72436e-06
2.03194e-06
2.02845e-06
1.72252e-06
8.57919e-07
9.29813e-07
1.71822e-06
1.92619e-06
1.95858e-06
1.86226e-06
1.9591e-06
1.83968e-06
1.96106e-06
1.81511e-06
1.4172e-06
4.58003e-07
2.95032e-07
8.00902e-07
1.15646e-06
1.42035e-06
1.42437e-06
1.33968e-06
1.09091e-06
6.14719e-07
3.32977e-07
6.51794e-07
6.43873e-07
5.07548e-07
3.6231e-07
9.62853e-07
1.77874e-06
1.64311e-06
1.94588e-06
1.83465e-06
1.77729e-06
1.73112e-06
1.45365e-06
7.53365e-07
8.47747e-07
1.60527e-06
1.94441e-06
1.50366e-06
1.57723e-06
1.62694e-06
1.62528e-06
1.64402e-06
1.68224e-06
1.99289e-06
1.89283e-06
1.22398e-06
3.03711e-07
1.04253e-06
1.90663e-06
1.94319e-06
2.22045e-06
1.11132e-06
2.09081e-06
2.3371e-06
2.27781e-06
1.99001e-06
1.86644e-06
1.96223e-06
1.63407e-06
3.93696e-07
8.60595e-07
1.89451e-06
2.00874e-06
2.04573e-06
2.17231e-06
9.12297e-07
1.8911e-06
2.23946e-06
2.37613e-06
2.18314e-06
2.00247e-06
1.93676e-06
1.9736e-06
1.53716e-06
3.59964e-07
1.69988e-06
1.85586e-06
2.01258e-06
2.04596e-06
2.131e-06
8.46504e-07
1.72586e-06
2.03504e-06
2.19147e-06
2.10884e-06
2.06131e-06
2.00559e-06
1.95671e-06
1.94674e-06
1.0389e-06
1.06787e-06
1.84733e-06
2.00984e-06
2.01793e-06
2.04219e-06
2.06891e-06
7.8139e-07
1.56241e-06
1.83377e-06
1.99322e-06
1.96763e-06
2.01416e-06
2.03101e-06
1.99771e-06
1.98838e-06
1.80864e-06
2.87247e-07
1.67272e-06
2.00458e-06
2.01628e-06
2.02367e-06
2.03946e-06
2.00844e-06
6.94862e-07
1.35826e-06
1.60232e-06
1.81109e-06
1.86585e-06
1.95963e-06
2.0264e-06
2.02741e-06
2.02313e-06
1.88757e-06
7.79571e-07
3.18028e-07
1.78965e-06
2.00647e-06
2.02109e-06
2.02837e-06
2.03623e-06
1.96959e-06
5.78337e-07
1.11728e-06
1.35755e-06
1.67635e-06
1.83572e-06
1.94734e-06
2.02091e-06
2.03648e-06
2.03419e-06
1.86233e-06
1.12365e-06
6.29265e-07
1.85881e-06
2.00622e-06
2.02164e-06
2.03007e-06
2.02801e-06
1.9793e-06
8.56786e-07
1.69866e-06
1.899e-06
1.97596e-06
2.02493e-06
2.03491e-06
2.028e-06
1.84885e-06
1.48044e-06
6.46709e-07
1.86936e-06
2.00208e-06
2.01729e-06
2.02477e-06
2.00797e-06
1.96985e-06
1.82472e-06
1.33415e-06
6.64272e-07
1.28329e-06
1.82083e-06
2.01287e-06
2.02986e-06
2.02973e-06
2.02177e-06
1.84298e-06
1.49288e-06
5.40029e-07
1.86123e-06
1.99357e-06
2.00673e-06
2.01116e-06
1.97907e-06
1.9046e-06
1.77336e-06
1.54086e-06
9.71017e-07
8.07351e-07
1.40439e-06
2.03503e-06
2.02999e-06
2.02541e-06
2.02024e-06
1.83124e-06
1.375e-06
1.7929e-06
1.97801e-06
1.99027e-06
1.99571e-06
1.96162e-06
1.88244e-06
1.78275e-06
1.73362e-06
1.34945e-06
1.07914e-06
1.46635e-06
2.05488e-06
2.02798e-06
2.02244e-06
2.01942e-06
1.83705e-06
1.02479e-06
1.52107e-06
2.1075e-06
1.97004e-06
1.9833e-06
1.97148e-06
1.92223e-06
1.88541e-06
1.9763e-06
1.58864e-06
1.25962e-06
1.50018e-06
2.08127e-06
2.02618e-06
2.01937e-06
2.01601e-06
1.89063e-06
6.45184e-07
7.77491e-07
1.91912e-06
1.95134e-06
1.96612e-06
1.99382e-06
2.00834e-06
2.03416e-06
2.2003e-06
1.78644e-06
1.40021e-06
1.51142e-06
2.1048e-06
2.02388e-06
2.0139e-06
1.83661e-06
1.53154e-06
1.18186e-06
1.95854e-06
1.93525e-06
1.98306e-06
2.07663e-06
2.20292e-06
2.41548e-06
1.96283e-06
1.51844e-06
1.52004e-06
2.12838e-06
2.02165e-06
2.01036e-06
1.74943e-06
5.00951e-07
3.23995e-07
1.59804e-06
1.96545e-06
1.91017e-06
1.99087e-06
2.25101e-06
2.63109e-06
2.20375e-06
1.7132e-06
1.47914e-06
2.1266e-06
2.02581e-06
1.88202e-06
8.98222e-07
4.15774e-07
1.49738e-06
1.91916e-06
1.79448e-06
1.78636e-06
1.90155e-06
1.87927e-06
1.72585e-06
2.24125e-06
1.67661e-06
1.58316e-06
1.95043e-06
1.75618e-06
8.80826e-07
9.40178e-07
1.7296e-06
1.94471e-06
1.9656e-06
1.97606e-06
1.97724e-06
1.97009e-06
1.94348e-06
1.87865e-06
1.46018e-06
4.91734e-07
2.93939e-07
7.78064e-07
1.05755e-06
1.37544e-06
1.3913e-06
1.29418e-06
1.02383e-06
6.33266e-07
2.87062e-07
6.03965e-07
6.17289e-07
4.96223e-07
3.41808e-07
1.05919e-06
1.71849e-06
1.84174e-06
1.86699e-06
1.82762e-06
1.78723e-06
1.73675e-06
1.47219e-06
7.5264e-07
8.2906e-07
1.69029e-06
1.83862e-06
1.98374e-06
1.94146e-06
1.38502e-06
1.27779e-06
1.32803e-06
1.39718e-06
1.9823e-06
1.91335e-06
1.22122e-06
3.0068e-07
1.10253e-06
1.85382e-06
1.72058e-06
2.01336e-06
1.91094e-06
1.63551e-06
7.72505e-07
2.17268e-06
2.07507e-06
1.90078e-06
1.6468e-06
1.52951e-06
1.96432e-06
1.64431e-06
3.90425e-07
8.38481e-07
1.85597e-06
1.99961e-06
2.0052e-06
2.0143e-06
1.76828e-06
1.30326e-06
5.96619e-07
1.90155e-06
1.93709e-06
2.03007e-06
1.98019e-06
1.75706e-06
1.65738e-06
1.9742e-06
1.53976e-06
3.44362e-07
1.73902e-06
1.59895e-06
1.99873e-06
2.00389e-06
2.01008e-06
1.75515e-06
1.28617e-06
5.5948e-07
1.74273e-06
1.80923e-06
1.95601e-06
2.01967e-06
1.94382e-06
1.79977e-06
1.7146e-06
1.9393e-06
1.03496e-06
1.11733e-06
1.71979e-06
1.98704e-06
1.99081e-06
1.99255e-06
1.99532e-06
1.76103e-06
1.30934e-06
5.3661e-07
1.5803e-06
1.66714e-06
1.82436e-06
1.93618e-06
1.96628e-06
1.88888e-06
1.78057e-06
1.77091e-06
1.77841e-06
2.70662e-07
1.68327e-06
1.96839e-06
1.97332e-06
1.97151e-06
1.96697e-06
1.96097e-06
1.76834e-06
1.36303e-06
5.26196e-07
1.38856e-06
1.50593e-06
1.68083e-06
1.82956e-06
1.92111e-06
1.91301e-06
1.83374e-06
1.80535e-06
1.96556e-06
7.55053e-07
2.95319e-07
1.79512e-06
1.95251e-06
1.94898e-06
1.94225e-06
1.9289e-06
1.90338e-06
1.75319e-06
1.43094e-06
6.31269e-07
1.17251e-06
1.32194e-06
1.53869e-06
1.74124e-06
1.87116e-06
1.90037e-06
1.85512e-06
1.83997e-06
1.9866e-06
1.09912e-06
6.01004e-07
1.85251e-06
1.92679e-06
1.91978e-06
1.91478e-06
1.89686e-06
1.8427e-06
1.70801e-06
1.37381e-06
1.01826e-06
1.44938e-06
1.70666e-06
1.84329e-06
1.88251e-06
1.87012e-06
1.87455e-06
1.96766e-06
1.453e-06
6.20453e-07
1.86521e-06
1.89568e-06
1.89178e-06
1.9037e-06
1.88863e-06
1.80894e-06
1.6504e-06
1.3483e-06
8.04765e-07
1.51001e-06
1.74419e-06
1.84718e-06
1.88458e-06
1.89721e-06
1.91202e-06
1.84686e-06
1.47706e-06
5.13533e-07
1.83957e-06
1.86264e-06
1.86928e-06
1.9055e-06
1.89997e-06
1.80741e-06
1.621e-06
1.46088e-06
8.14674e-07
4.11632e-07
1.076e-06
1.5975e-06
1.8234e-06
1.88678e-06
1.91589e-06
1.93273e-06
1.94626e-06
1.7566e-06
1.38767e-06
1.76019e-06
1.83271e-06
1.84632e-06
1.90432e-06
1.92475e-06
1.85366e-06
1.70315e-06
1.57837e-06
1.31069e-06
1.35446e-06
1.06529e-06
1.80208e-06
1.91928e-06
1.94423e-06
1.95632e-06
1.96604e-06
1.9734e-06
1.74046e-06
9.9714e-07
1.49212e-06
1.98933e-06
1.80849e-06
1.87853e-06
1.9468e-06
1.92745e-06
1.82374e-06
1.73502e-06
1.50065e-06
1.59981e-06
1.00119e-06
1.59938e-06
1.97144e-06
1.98661e-06
1.98664e-06
1.98937e-06
1.98949e-06
1.85707e-06
6.15817e-07
7.67269e-07
1.91151e-06
1.76334e-06
1.80666e-06
1.92746e-06
1.99146e-06
1.9475e-06
1.88239e-06
1.659e-06
1.80115e-06
9.817e-07
1.54515e-06
1.98809e-06
2.0055e-06
2.00169e-06
1.99939e-06
1.62516e-06
1.58546e-06
1.18134e-06
1.95597e-06
1.70514e-06
1.81265e-06
1.96664e-06
2.03348e-06
2.00983e-06
1.80157e-06
1.97659e-06
9.77819e-07
1.54463e-06
1.98793e-06
2.01175e-06
2.00576e-06
2.00155e-06
1.79013e-06
4.85039e-07
3.18195e-07
1.61182e-06
1.96835e-06
1.61857e-06
1.71958e-06
1.9745e-06
2.12969e-06
1.98535e-06
2.20241e-06
1.03088e-06
1.65103e-06
1.97925e-06
2.01046e-06
2.00556e-06
1.8247e-06
9.5517e-07
4.12557e-07
1.51159e-06
1.92631e-06
1.4438e-06
1.39227e-06
1.32986e-06
1.26038e-06
1.01925e-06
1.33445e-06
1.92006e-06
2.01197e-06
1.76629e-06
1.77121e-06
9.43926e-07
9.56324e-07
1.74602e-06
1.94641e-06
1.95731e-06
1.95316e-06
1.93626e-06
1.90809e-06
1.87633e-06
1.87853e-06
1.53393e-06
4.89919e-07
2.91216e-07
7.77528e-07
1.05698e-06
1.39802e-06
1.42793e-06
1.33242e-06
1.02097e-06
6.3446e-07
2.69816e-07
5.85307e-07
6.02177e-07
4.89162e-07
3.18194e-07
1.08641e-06
1.66994e-06
1.79569e-06
1.8399e-06
1.83741e-06
1.80846e-06
1.7444e-06
1.4844e-06
7.49657e-07
7.9745e-07
1.70617e-06
1.95257e-06
2.00655e-06
2.00864e-06
2.00531e-06
1.99622e-06
1.99068e-06
1.98756e-06
1.98561e-06
1.91979e-06
1.2248e-06
2.98182e-07
1.10906e-06
1.93311e-06
1.93954e-06
2.00613e-06
2.01276e-06
2.00993e-06
1.7717e-06
1.69873e-06
1.72307e-06
1.75913e-06
1.8488e-06
1.90594e-06
1.96649e-06
1.65025e-06
3.88919e-07
8.08613e-07
1.93687e-06
2.00356e-06
2.00636e-06
2.0109e-06
2.01536e-06
1.9838e-06
1.4828e-06
1.36831e-06
1.43534e-06
1.50485e-06
1.59383e-06
1.75789e-06
1.85112e-06
1.9774e-06
1.54569e-06
3.16657e-07
1.73677e-06
1.97043e-06
2.0065e-06
2.00943e-06
2.01252e-06
2.01477e-06
1.97327e-06
1.49733e-06
1.38314e-06
1.43543e-06
1.47272e-06
1.50967e-06
1.63209e-06
1.77334e-06
1.86423e-06
1.93939e-06
1.03121e-06
1.12353e-06
1.97396e-06
2.00339e-06
2.007e-06
2.00881e-06
2.01063e-06
2.00986e-06
1.96727e-06
1.59126e-06
1.48863e-06
1.52376e-06
1.53613e-06
1.54035e-06
1.6196e-06
1.74386e-06
1.85326e-06
1.89519e-06
1.77061e-06
2.66149e-07
1.6782e-06
1.99672e-06
2.00253e-06
2.00335e-06
2.00286e-06
2.00227e-06
1.99154e-06
1.92357e-06
1.65307e-06
1.587e-06
1.6211e-06
1.63212e-06
1.62491e-06
1.67411e-06
1.76709e-06
1.86197e-06
1.91503e-06
1.95406e-06
7.4755e-07
2.70009e-07
1.7992e-06
1.99437e-06
1.99627e-06
1.99135e-06
1.98587e-06
1.97901e-06
1.93949e-06
1.73105e-06
1.32096e-06
1.23452e-06
1.47937e-06
1.66899e-06
1.7191e-06
1.75925e-06
1.82656e-06
1.8967e-06
1.94133e-06
1.9706e-06
1.08479e-06
5.77083e-07
1.84622e-06
1.9867e-06
1.98186e-06
1.96672e-06
1.94957e-06
1.9293e-06
1.84228e-06
1.38053e-06
1.07994e-06
1.5451e-06
1.78963e-06
1.84803e-06
1.89374e-06
1.93786e-06
1.96728e-06
1.97754e-06
1.43029e-06
5.99784e-07
1.84625e-06
1.97335e-06
1.95795e-06
1.9256e-06
1.88802e-06
1.85205e-06
1.73743e-06
1.20996e-06
9.35164e-07
1.60042e-06
1.87112e-06
1.92338e-06
1.94797e-06
1.97106e-06
1.98648e-06
1.97955e-06
1.4543e-06
4.95385e-07
1.82073e-06
1.95276e-06
1.92439e-06
1.86966e-06
1.80877e-06
1.76419e-06
1.69759e-06
1.39567e-06
1.10735e-06
8.58024e-07
1.22311e-06
1.81721e-06
1.94672e-06
1.97318e-06
1.98298e-06
1.99238e-06
1.99844e-06
1.97811e-06
1.37045e-06
1.74744e-06
1.92483e-06
1.88776e-06
1.81275e-06
1.72891e-06
1.6724e-06
1.66004e-06
1.65869e-06
1.58451e-06
1.54281e-06
1.77123e-06
2.10044e-06
1.99278e-06
1.99924e-06
2.00148e-06
2.00396e-06
2.00477e-06
1.971e-06
9.73706e-07
1.48082e-06
1.97969e-06
1.8632e-06
1.77893e-06
1.6685e-06
1.58692e-06
1.56521e-06
1.59157e-06
1.56906e-06
1.57127e-06
1.8732e-06
2.02243e-06
2.00989e-06
2.00962e-06
2.00899e-06
2.00844e-06
2.00628e-06
1.93905e-06
5.82944e-07
7.62483e-07
1.91042e-06
1.85355e-06
1.78766e-06
1.6548e-06
1.53951e-06
1.48591e-06
1.49295e-06
1.43907e-06
1.44107e-06
2.03628e-06
2.00581e-06
2.01545e-06
2.01225e-06
2.0103e-06
2.00758e-06
1.9791e-06
1.57707e-06
1.19005e-06
1.95842e-06
1.82969e-06
1.72032e-06
1.578e-06
1.47563e-06
1.44815e-06
1.38129e-06
1.37158e-06
1.85986e-06
2.00942e-06
2.01592e-06
2.01146e-06
2.0084e-06
2.00603e-06
1.82374e-06
4.55775e-07
3.11983e-07
1.62416e-06
1.97387e-06
1.84978e-06
1.76988e-06
1.62472e-06
1.55906e-06
1.48124e-06
1.46707e-06
1.90305e-06
2.01451e-06
2.01292e-06
2.00744e-06
2.00522e-06
1.93689e-06
9.79008e-07
4.05673e-07
1.52599e-06
1.9336e-06
1.94765e-06
1.94709e-06
1.91131e-06
1.91392e-06
1.93453e-06
2.00143e-06
2.01214e-06
2.00701e-06
1.93234e-06
1.80892e-06
9.70627e-07
9.77216e-07
1.76004e-06
1.95092e-06
1.96586e-06
1.96973e-06
1.96701e-06
1.9593e-06
1.94942e-06
1.9237e-06
1.55277e-06
4.62035e-07
2.82226e-07
7.66798e-07
1.07322e-06
1.41348e-06
1.43981e-06
1.34788e-06
9.96161e-07
6.04386e-07
2.63918e-07
5.79922e-07
5.98094e-07
4.90253e-07
3.06396e-07
1.09603e-06
1.6579e-06
1.78215e-06
1.83188e-06
1.83444e-06
1.8108e-06
1.74476e-06
1.48847e-06
7.50987e-07
7.8054e-07
1.6987e-06
1.97143e-06
2.00195e-06
2.0024e-06
2.00295e-06
2.00331e-06
2.00354e-06
2.00384e-06
1.984e-06
1.92174e-06
1.22538e-06
2.99638e-07
1.09853e-06
1.92792e-06
1.99098e-06
2.0043e-06
2.00711e-06
2.00955e-06
2.01084e-06
2.01135e-06
2.01238e-06
2.01252e-06
2.01031e-06
2.00804e-06
1.96703e-06
1.65658e-06
3.90869e-07
7.94352e-07
1.92722e-06
2.00358e-06
2.00579e-06
2.00865e-06
2.0107e-06
2.01247e-06
2.00972e-06
2.0042e-06
2.00484e-06
2.0066e-06
2.00824e-06
2.0087e-06
2.00811e-06
1.9787e-06
1.54983e-06
3.00832e-07
1.71823e-06
1.99094e-06
2.00685e-06
2.00924e-06
2.01068e-06
2.0117e-06
2.01188e-06
2.00619e-06
1.99803e-06
1.99845e-06
1.99968e-06
2.00062e-06
2.00516e-06
2.00799e-06
2.00665e-06
1.94023e-06
1.02885e-06
1.11468e-06
1.96885e-06
2.00512e-06
2.00891e-06
2.01062e-06
2.01114e-06
2.00955e-06
2.00217e-06
1.98979e-06
1.9861e-06
1.99093e-06
1.99497e-06
1.99604e-06
2.00092e-06
2.00656e-06
2.00723e-06
2.00529e-06
1.76811e-06
2.70243e-07
1.66204e-06
2.00084e-06
2.00756e-06
2.01043e-06
2.01121e-06
2.00988e-06
1.99854e-06
1.94892e-06
1.87534e-06
1.89992e-06
1.94802e-06
1.98092e-06
1.99342e-06
2.00014e-06
2.00627e-06
2.0083e-06
2.00595e-06
1.95128e-06
7.51032e-07
2.58451e-07
1.78464e-06
2.00247e-06
2.00946e-06
2.01095e-06
2.01093e-06
2.00536e-06
1.96507e-06
1.75457e-06
1.37825e-06
1.33356e-06
1.62754e-06
1.88301e-06
1.97802e-06
2.00072e-06
2.0076e-06
2.00939e-06
2.00744e-06
1.9662e-06
1.07707e-06
5.71672e-07
1.83333e-06
2.00287e-06
2.00952e-06
2.01071e-06
2.00941e-06
1.99627e-06
1.90259e-06
1.41431e-06
1.10773e-06
1.65448e-06
1.94611e-06
2.001e-06
2.00941e-06
2.01053e-06
2.00844e-06
1.97131e-06
1.4169e-06
5.97904e-07
1.83586e-06
2.00313e-06
2.009e-06
2.00959e-06
2.00614e-06
1.98501e-06
1.84458e-06
1.25181e-06
9.48733e-07
1.67248e-06
1.95764e-06
2.00514e-06
2.01101e-06
2.01124e-06
2.00898e-06
1.97217e-06
1.43922e-06
4.95736e-07
1.81222e-06
2.00311e-06
2.00797e-06
2.00758e-06
2.00214e-06
1.98446e-06
1.88741e-06
1.50122e-06
1.16244e-06
9.2376e-07
1.31298e-06
2.05107e-06
1.98512e-06
2.00926e-06
2.01183e-06
2.01141e-06
2.00918e-06
1.97053e-06
1.3545e-06
1.74111e-06
2.00255e-06
2.00657e-06
2.00539e-06
1.99876e-06
1.99048e-06
1.97307e-06
1.91276e-06
1.79558e-06
1.69867e-06
1.81069e-06
2.11973e-06
2.00393e-06
2.01152e-06
2.01199e-06
2.0111e-06
2.00857e-06
1.9639e-06
9.6434e-07
1.47714e-06
1.97799e-06
2.00473e-06
2.00452e-06
1.99759e-06
1.9909e-06
1.99e-06
1.98557e-06
1.97423e-06
1.97154e-06
1.98692e-06
2.0118e-06
2.01045e-06
2.012e-06
2.01147e-06
2.00998e-06
2.00682e-06
1.92885e-06
5.66958e-07
7.61465e-07
1.91136e-06
2.00448e-06
2.0054e-06
2.00082e-06
1.99423e-06
1.99366e-06
1.99553e-06
1.99142e-06
1.99368e-06
2.13758e-06
2.01253e-06
2.01201e-06
2.01139e-06
2.01003e-06
2.00719e-06
1.98752e-06
1.55681e-06
1.19978e-06
1.96046e-06
2.00593e-06
2.00616e-06
2.00275e-06
2.00018e-06
2.00057e-06
1.99988e-06
2.00469e-06
2.01661e-06
2.01288e-06
2.01135e-06
2.00982e-06
2.0075e-06
2.00544e-06
1.80725e-06
4.36541e-07
3.07719e-07
1.63359e-06
1.97636e-06
2.00813e-06
2.0088e-06
2.00942e-06
2.00903e-06
2.00814e-06
2.00929e-06
2.01245e-06
2.0109e-06
2.00856e-06
2.00599e-06
2.00433e-06
1.93192e-06
9.85437e-07
3.9988e-07
1.53619e-06
1.93716e-06
2.00708e-06
2.00766e-06
2.01105e-06
2.01045e-06
2.00929e-06
2.00799e-06
2.0057e-06
2.00355e-06
1.98573e-06
1.79963e-06
9.80581e-07
9.94153e-07
1.76731e-06
1.95125e-06
1.96644e-06
1.972e-06
1.97349e-06
1.97212e-06
1.96486e-06
1.92647e-06
1.54625e-06
4.38768e-07
2.72717e-07
7.52264e-07
1.08124e-06
1.41555e-06
1.43823e-06
1.34871e-06
9.72959e-07
5.76607e-07
2.62402e-07
5.7854e-07
5.98328e-07
4.93107e-07
3.03852e-07
1.10263e-06
1.65167e-06
1.77758e-06
1.827e-06
1.83129e-06
1.81009e-06
1.74397e-06
1.48787e-06
7.53156e-07
7.82681e-07
1.69368e-06
1.96792e-06
2.00079e-06
2.00104e-06
2.00128e-06
2.00125e-06
2.0012e-06
2.00122e-06
1.98235e-06
1.92264e-06
1.22622e-06
3.01936e-07
1.08363e-06
1.92157e-06
1.98736e-06
2.00376e-06
2.00585e-06
2.00723e-06
2.00818e-06
2.00891e-06
2.00938e-06
2.00909e-06
2.00707e-06
2.005e-06
1.96746e-06
1.65882e-06
3.93205e-07
7.9555e-07
1.92133e-06
2.00341e-06
2.00537e-06
2.0078e-06
2.00899e-06
2.00974e-06
2.01037e-06
2.01097e-06
2.01139e-06
2.01146e-06
2.01066e-06
2.00817e-06
2.00639e-06
1.98041e-06
1.55519e-06
2.97293e-07
1.70779e-06
1.98709e-06
2.00642e-06
2.00857e-06
2.00957e-06
2.00982e-06
2.00931e-06
2.0091e-06
2.01012e-06
2.01119e-06
2.01186e-06
2.01188e-06
2.01094e-06
2.00916e-06
2.00558e-06
1.94204e-06
1.02672e-06
1.10675e-06
1.96513e-06
2.00459e-06
2.00825e-06
2.00974e-06
2.00988e-06
2.00784e-06
2.00028e-06
1.99233e-06
1.99758e-06
2.00471e-06
2.00939e-06
2.01139e-06
2.0116e-06
2.01058e-06
2.00743e-06
2.00453e-06
1.76874e-06
2.7303e-07
1.65348e-06
2.0001e-06
2.00681e-06
2.00959e-06
2.01018e-06
2.00868e-06
1.99788e-06
1.9494e-06
1.87378e-06
1.90244e-06
1.9564e-06
1.99232e-06
2.00696e-06
2.01091e-06
2.01107e-06
2.00924e-06
2.00519e-06
1.95077e-06
7.53451e-07
2.5807e-07
1.77796e-06
2.00151e-06
2.00858e-06
2.0101e-06
2.01009e-06
2.00483e-06
1.96753e-06
1.76223e-06
1.3796e-06
1.33182e-06
1.62931e-06
1.88952e-06
1.98667e-06
2.00794e-06
2.01093e-06
2.00988e-06
2.00646e-06
1.96486e-06
1.07389e-06
5.75771e-07
1.8272e-06
2.00184e-06
2.00874e-06
2.01033e-06
2.0096e-06
1.99763e-06
1.90982e-06
1.42878e-06
1.1078e-06
1.66873e-06
1.95264e-06
2.00447e-06
2.01065e-06
2.01014e-06
2.00715e-06
1.96941e-06
1.41002e-06
6.01642e-07
1.83121e-06
2.00209e-06
2.0086e-06
2.01042e-06
2.00893e-06
1.98977e-06
1.85427e-06
1.26437e-06
9.51827e-07
1.69432e-06
1.96253e-06
2.00861e-06
2.01089e-06
2.01021e-06
2.00753e-06
1.96949e-06
1.43091e-06
4.98871e-07
1.80845e-06
2.00234e-06
2.0083e-06
2.01044e-06
2.00928e-06
1.99399e-06
1.89592e-06
1.51112e-06
1.16829e-06
9.29624e-07
1.28586e-06
2.02541e-06
1.98733e-06
2.01587e-06
2.01113e-06
2.01012e-06
2.00771e-06
1.96742e-06
1.3452e-06
1.73869e-06
2.0022e-06
2.00769e-06
2.01036e-06
2.01063e-06
2.0063e-06
1.98547e-06
1.91909e-06
1.79457e-06
1.69523e-06
1.80349e-06
2.02969e-06
2.00286e-06
2.01039e-06
2.01065e-06
2.00979e-06
2.00712e-06
1.96024e-06
9.64327e-07
1.47667e-06
1.97731e-06
2.00594e-06
2.00979e-06
2.01118e-06
2.01079e-06
2.00756e-06
1.99858e-06
1.98858e-06
2.0245e-06
2.04246e-06
2.00561e-06
2.00859e-06
2.01049e-06
2.01023e-06
2.0088e-06
2.0054e-06
1.92414e-06
5.64019e-07
7.60677e-07
1.91319e-06
2.00501e-06
2.00831e-06
2.01073e-06
2.01163e-06
2.01147e-06
2.00999e-06
2.0092e-06
2.06281e-06
2.08415e-06
2.0137e-06
2.01018e-06
2.01011e-06
2.00903e-06
2.00621e-06
1.98334e-06
1.54492e-06
1.20877e-06
1.96239e-06
2.00575e-06
2.00915e-06
2.01085e-06
2.01176e-06
2.01182e-06
2.01157e-06
2.01248e-06
2.01429e-06
2.01076e-06
2.00975e-06
2.00883e-06
2.00675e-06
2.00475e-06
1.79695e-06
4.28333e-07
3.05192e-07
1.64104e-06
1.97805e-06
2.00619e-06
2.00759e-06
2.01008e-06
2.01086e-06
2.0108e-06
2.01031e-06
2.00962e-06
2.00868e-06
2.00733e-06
2.00538e-06
2.00383e-06
1.92543e-06
9.86719e-07
3.95663e-07
1.5436e-06
1.93962e-06
2.00361e-06
2.00419e-06
2.00724e-06
2.0071e-06
2.00648e-06
2.0057e-06
2.00415e-06
2.00251e-06
1.98257e-06
1.79405e-06
9.84106e-07
1.0053e-06
1.77121e-06
1.95049e-06
1.96525e-06
1.96999e-06
1.97097e-06
1.9693e-06
1.96167e-06
1.92227e-06
1.54069e-06
4.25261e-07
2.65717e-07
7.40127e-07
1.08529e-06
1.41496e-06
1.43558e-06
1.34815e-06
9.58035e-07
5.59363e-07
2.61932e-07
5.7855e-07
5.99599e-07
4.9571e-07
3.04112e-07
1.10156e-06
1.64961e-06
1.77578e-06
1.82518e-06
1.8295e-06
1.80896e-06
1.74245e-06
1.48716e-06
7.54732e-07
7.85913e-07
1.69158e-06
1.96519e-06
2.00054e-06
2.00069e-06
2.00085e-06
2.0007e-06
2.00065e-06
2.0006e-06